<?xml version="1.0" encoding="UTF-8"?>

<!-- generated on 2025-10-25 15:07:09 by Eclipse SUMO sumo Version 1.12.0
<configuration xmlns:xsi="http://www.w3.org/2001/XMLSchema-instance" xsi:noNamespaceSchemaLocation="http://sumo.dlr.de/xsd/sumoConfiguration.xsd">

    <input>
        <net-file value="/home/azureuser/traffic_rl/junctions/uhuru/cross.net.xml"/>
        <route-files value="/home/azureuser/traffic_rl/junctions/uhuru/stress.rou.xml"/>
        <additional-files value="/home/azureuser/traffic_rl/junctions/uhuru/detectors.add.xml"/>
    </input>

    <output>
        <emission-output value="/home/azureuser/traffic_rl/junctions/uhuru/baseline_emissions.xml"/>
        <tripinfo-output value="/home/azureuser/traffic_rl/junctions/uhuru/baseline_trips.xml"/>
    </output>

    <time>
        <begin value="0"/>
        <end value="7200"/>
    </time>

    <processing>
        <time-to-teleport value="-1"/>
    </processing>

    <report>
        <no-step-log value="true"/>
    </report>

    <traci_server>
    </traci_server>

    <gui_only>
        <start value="true"/>
    </gui_only>

</configuration>
-->

<tripinfos xmlns:xsi="http://www.w3.org/2001/XMLSchema-instance" xsi:noNamespaceSchemaLocation="http://sumo.dlr.de/xsd/tripinfo_file.xsd">
    <tripinfo id="1" depart="1.00" departLane="E_out_0" departPos="5.10" departSpeed="0.00" departDelay="0.20" arrival="18.00" arrivalLane="E_out_0" arrivalPos="179.60" arrivalSpeed="13.00" duration="17.00" routeLength="174.50" waitingTime="0.00" waitingCount="0" stopTime="0.00" timeLoss="3.43" rerouteNo="0" devices="tripinfo_1 emissions_1" vType="DEFAULT_VEHTYPE" speedFactor="0.94" vaporized="">
        <emissions CO_abs="1030.329080" CO2_abs="56669.429499" HC_abs="6.027634" PMx_abs="1.052578" NOx_abs="23.613092" fuel_abs="24.359809" electricity_abs="0"/>
    </tripinfo>
    <tripinfo id="5" depart="4.00" departLane="N_out_0" departPos="5.10" departSpeed="0.00" departDelay="0.00" arrival="23.00" arrivalLane="N_out_0" arrivalPos="179.60" arrivalSpeed="10.70" duration="19.00" routeLength="174.50" waitingTime="0.00" waitingCount="0" stopTime="0.00" timeLoss="3.77" rerouteNo="0" devices="tripinfo_5 emissions_5" vType="DEFAULT_VEHTYPE" speedFactor="0.83" vaporized="">
        <emissions CO_abs="1005.782487" CO2_abs="50152.275419" HC_abs="5.753950" PMx_abs="0.910211" NOx_abs="20.844244" fuel_abs="21.558463" electricity_abs="0"/>
    </tripinfo>
    <tripinfo id="21" depart="17.00" departLane="W_out_0" departPos="5.10" departSpeed="0.00" departDelay="0.20" arrival="33.00" arrivalLane="W_out_0" arrivalPos="179.60" arrivalSpeed="13.52" duration="16.00" routeLength="174.50" waitingTime="0.00" waitingCount="0" stopTime="0.00" timeLoss="3.44" rerouteNo="0" devices="tripinfo_21 emissions_21" vType="DEFAULT_VEHTYPE" speedFactor="1.01" vaporized="">
        <emissions CO_abs="1076.031608" CO2_abs="61351.926843" HC_abs="6.353051" PMx_abs="1.163655" NOx_abs="25.649780" fuel_abs="26.372555" electricity_abs="0"/>
    </tripinfo>
    <tripinfo id="3" depart="3.00" departLane="N_in_0" departPos="5.10" departSpeed="0.00" departDelay="0.60" arrival="34.00" arrivalLane="S_out_0" arrivalPos="179.60" arrivalSpeed="13.96" duration="31.00" routeLength="394.90" waitingTime="0.00" waitingCount="0" stopTime="0.00" timeLoss="4.38" rerouteNo="0" devices="tripinfo_3 emissions_3" vType="DEFAULT_VEHTYPE" speedFactor="1.08" vaporized="">
        <emissions CO_abs="1162.957287" CO2_abs="86183.940710" HC_abs="7.269937" PMx_abs="1.454302" NOx_abs="34.357561" fuel_abs="37.046791" electricity_abs="0"/>
    </tripinfo>
    <tripinfo id="8" depart="7.00" departLane="N_in_0" departPos="5.10" departSpeed="0.00" departDelay="0.60" arrival="41.00" arrivalLane="S_out_0" arrivalPos="179.60" arrivalSpeed="12.54" duration="34.00" routeLength="394.90" waitingTime="0.00" waitingCount="0" stopTime="0.00" timeLoss="3.67" rerouteNo="0" devices="tripinfo_8 emissions_8" vType="DEFAULT_VEHTYPE" speedFactor="0.94" vaporized="">
        <emissions CO_abs="1180.523932" CO2_abs="89373.072392" HC_abs="7.454792" PMx_abs="1.411291" NOx_abs="35.194629" fuel_abs="38.417779" electricity_abs="0"/>
    </tripinfo>
    <tripinfo id="0" depart="0.00" departLane="N_in_0" departPos="5.10" departSpeed="0.00" departDelay="0.00" arrival="43.00" arrivalLane="E_out_1" arrivalPos="179.60" arrivalSpeed="14.21" duration="43.00" routeLength="384.42" waitingTime="7.00" waitingCount="1" stopTime="0.00" timeLoss="16.00" rerouteNo="0" devices="tripinfo_0 emissions_0" vType="DEFAULT_VEHTYPE" speedFactor="1.06" vaporized="">
        <emissions CO_abs="2550.925881" CO2_abs="138134.726992" HC_abs="14.886702" PMx_abs="2.620510" NOx_abs="57.577795" fuel_abs="59.378307" electricity_abs="0"/>
    </tripinfo>
    <tripinfo id="4" depart="4.00" departLane="S_in_0" departPos="5.10" departSpeed="0.00" departDelay="0.80" arrival="43.00" arrivalLane="W_out_1" arrivalPos="179.60" arrivalSpeed="13.41" duration="39.00" routeLength="384.42" waitingTime="3.00" waitingCount="1" stopTime="0.00" timeLoss="11.41" rerouteNo="0" devices="tripinfo_4 emissions_4" vType="DEFAULT_VEHTYPE" speedFactor="1.03" vaporized="">
        <emissions CO_abs="2021.896401" CO2_abs="118659.090404" HC_abs="11.991311" PMx_abs="2.210313" NOx_abs="49.213760" fuel_abs="51.006462" electricity_abs="0"/>
    </tripinfo>
    <tripinfo id="37" depart="30.00" departLane="E_out_0" departPos="5.10" departSpeed="0.00" departDelay="0.40" arrival="45.00" arrivalLane="E_out_0" arrivalPos="179.60" arrivalSpeed="15.84" duration="15.00" routeLength="174.50" waitingTime="0.00" waitingCount="0" stopTime="0.00" timeLoss="3.97" rerouteNo="0" devices="tripinfo_37 emissions_37" vType="DEFAULT_VEHTYPE" speedFactor="1.18" vaporized="">
        <emissions CO_abs="1119.390819" CO2_abs="65621.936276" HC_abs="6.658993" PMx_abs="1.268046" NOx_abs="27.462067" fuel_abs="28.207999" electricity_abs="0"/>
    </tripinfo>
    <tripinfo id="38" depart="33.00" departLane="E_out_0" departPos="5.10" departSpeed="0.00" departDelay="2.60" arrival="48.00" arrivalLane="E_out_0" arrivalPos="179.60" arrivalSpeed="15.21" duration="15.00" routeLength="174.50" waitingTime="0.00" waitingCount="0" stopTime="0.00" timeLoss="3.40" rerouteNo="0" devices="tripinfo_38 emissions_38" vType="DEFAULT_VEHTYPE" speedFactor="1.10" vaporized="">
        <emissions CO_abs="1089.990150" CO2_abs="65569.355081" HC_abs="6.520849" PMx_abs="1.257430" NOx_abs="27.393542" fuel_abs="28.185385" electricity_abs="0"/>
    </tripinfo>
    <tripinfo id="16" depart="13.00" departLane="N_in_0" departPos="5.10" departSpeed="0.00" departDelay="0.20" arrival="52.00" arrivalLane="W_out_0" arrivalPos="179.60" arrivalSpeed="11.26" duration="39.00" routeLength="394.74" waitingTime="0.00" waitingCount="0" stopTime="0.00" timeLoss="5.73" rerouteNo="0" devices="tripinfo_16 emissions_16" vType="DEFAULT_VEHTYPE" speedFactor="0.88" vaporized="">
        <emissions CO_abs="1631.611671" CO2_abs="101116.119365" HC_abs="9.799283" PMx_abs="1.768108" NOx_abs="41.373252" fuel_abs="43.465572" electricity_abs="0"/>
    </tripinfo>
    <tripinfo id="17" depart="14.00" departLane="S_in_0" departPos="5.10" departSpeed="0.00" departDelay="0.40" arrival="53.00" arrivalLane="W_out_1" arrivalPos="179.60" arrivalSpeed="13.01" duration="39.00" routeLength="384.42" waitingTime="1.00" waitingCount="1" stopTime="0.00" timeLoss="8.44" rerouteNo="0" devices="tripinfo_17 emissions_17" vType="DEFAULT_VEHTYPE" speedFactor="0.94" vaporized="">
        <emissions CO_abs="2114.726279" CO2_abs="126481.614997" HC_abs="12.599798" PMx_abs="2.247552" NOx_abs="51.883147" fuel_abs="54.369152" electricity_abs="0"/>
    </tripinfo>
    <tripinfo id="18" depart="16.00" departLane="N_in_0" departPos="5.10" departSpeed="0.00" departDelay="1.60" arrival="53.00" arrivalLane="E_out_1" arrivalPos="179.60" arrivalSpeed="12.92" duration="37.00" routeLength="384.42" waitingTime="0.00" waitingCount="0" stopTime="0.00" timeLoss="6.23" rerouteNo="0" devices="tripinfo_18 emissions_18" vType="DEFAULT_VEHTYPE" speedFactor="0.94" vaporized="">
        <emissions CO_abs="1783.683517" CO2_abs="113937.321408" HC_abs="10.791938" PMx_abs="1.969858" NOx_abs="46.317152" fuel_abs="48.976872" electricity_abs="0"/>
    </tripinfo>
    <tripinfo id="46" depart="37.00" departLane="N_out_0" departPos="5.10" departSpeed="0.00" departDelay="0.20" arrival="54.00" arrivalLane="N_out_0" arrivalPos="179.60" arrivalSpeed="13.67" duration="17.00" routeLength="174.50" waitingTime="0.00" waitingCount="0" stopTime="0.00" timeLoss="3.66" rerouteNo="0" devices="tripinfo_46 emissions_46" vType="DEFAULT_VEHTYPE" speedFactor="1.00" vaporized="">
        <emissions CO_abs="995.427402" CO2_abs="60421.453831" HC_abs="5.948784" PMx_abs="1.050922" NOx_abs="24.567990" fuel_abs="25.972683" electricity_abs="0"/>
    </tripinfo>
    <tripinfo id="48" depart="39.00" departLane="W_out_0" departPos="5.10" departSpeed="0.00" departDelay="0.60" arrival="56.00" arrivalLane="W_out_0" arrivalPos="179.60" arrivalSpeed="11.46" duration="17.00" routeLength="174.50" waitingTime="0.00" waitingCount="0" stopTime="0.00" timeLoss="2.66" rerouteNo="0" devices="tripinfo_48 emissions_48" vType="DEFAULT_VEHTYPE" speedFactor="0.88" vaporized="">
        <emissions CO_abs="867.318584" CO2_abs="49280.579382" HC_abs="5.107061" PMx_abs="0.890448" NOx_abs="20.385421" fuel_abs="21.183665" electricity_abs="0"/>
    </tripinfo>
    <tripinfo id="51" depart="41.00" departLane="S_out_0" departPos="5.10" departSpeed="0.00" departDelay="0.20" arrival="57.00" arrivalLane="S_out_0" arrivalPos="179.60" arrivalSpeed="15.98" duration="16.00" routeLength="174.50" waitingTime="0.00" waitingCount="0" stopTime="0.00" timeLoss="4.81" rerouteNo="0" devices="tripinfo_51 emissions_51" vType="DEFAULT_VEHTYPE" speedFactor="1.17" vaporized="">
        <emissions CO_abs="1243.815757" CO2_abs="74720.787153" HC_abs="7.393281" PMx_abs="1.382096" NOx_abs="30.775713" fuel_abs="32.119267" electricity_abs="0"/>
    </tripinfo>
    <tripinfo id="6" depart="7.00" departLane="S_in_0" departPos="5.10" departSpeed="0.00" departDelay="2.20" arrival="59.00" arrivalLane="E_out_0" arrivalPos="179.60" arrivalSpeed="14.05" duration="52.00" routeLength="394.74" waitingTime="13.00" waitingCount="1" stopTime="0.00" timeLoss="24.18" rerouteNo="0" devices="tripinfo_6 emissions_6" vType="DEFAULT_VEHTYPE" speedFactor="1.05" vaporized="">
        <emissions CO_abs="3341.880792" CO2_abs="143552.617470" HC_abs="18.611966" PMx_abs="2.817344" NOx_abs="60.553346" fuel_abs="61.707666" electricity_abs="0"/>
    </tripinfo>
    <tripinfo id="25" depart="20.00" departLane="N_in_0" departPos="5.10" departSpeed="0.00" departDelay="0.00" arrival="62.00" arrivalLane="E_out_1" arrivalPos="179.60" arrivalSpeed="10.87" duration="42.00" routeLength="384.42" waitingTime="0.00" waitingCount="0" stopTime="0.00" timeLoss="9.23" rerouteNo="0" devices="tripinfo_25 emissions_25" vType="DEFAULT_VEHTYPE" speedFactor="0.87" vaporized="">
        <emissions CO_abs="1916.842108" CO2_abs="111703.255071" HC_abs="11.329285" PMx_abs="1.884859" NOx_abs="45.277952" fuel_abs="48.016738" electricity_abs="0"/>
    </tripinfo>
    <tripinfo id="22" depart="18.00" departLane="S_in_0" departPos="5.10" departSpeed="0.00" departDelay="0.40" arrival="65.00" arrivalLane="E_out_0" arrivalPos="179.60" arrivalSpeed="13.53" duration="47.00" routeLength="394.74" waitingTime="3.00" waitingCount="1" stopTime="0.00" timeLoss="17.09" rerouteNo="0" devices="tripinfo_22 emissions_22" vType="DEFAULT_VEHTYPE" speedFactor="0.98" vaporized="">
        <emissions CO_abs="2452.348018" CO2_abs="135882.856539" HC_abs="14.353258" PMx_abs="2.465265" NOx_abs="56.076121" fuel_abs="58.410427" electricity_abs="0"/>
    </tripinfo>
    <tripinfo id="28" depart="23.00" departLane="E_in_0" departPos="5.10" departSpeed="0.00" departDelay="0.60" arrival="69.00" arrivalLane="W_out_0" arrivalPos="179.60" arrivalSpeed="15.56" duration="46.00" routeLength="394.90" waitingTime="6.00" waitingCount="1" stopTime="0.00" timeLoss="20.35" rerouteNo="0" devices="tripinfo_28 emissions_28" vType="DEFAULT_VEHTYPE" speedFactor="1.13" vaporized="">
        <emissions CO_abs="2652.186743" CO2_abs="139157.835147" HC_abs="15.324880" PMx_abs="2.709442" NOx_abs="58.318976" fuel_abs="59.818065" electricity_abs="0"/>
    </tripinfo>
    <tripinfo id="23" depart="19.00" departLane="E_in_0" departPos="5.10" departSpeed="0.00" departDelay="0.60" arrival="72.00" arrivalLane="N_out_0" arrivalPos="179.60" arrivalSpeed="12.03" duration="53.00" routeLength="394.74" waitingTime="8.00" waitingCount="1" stopTime="0.00" timeLoss="20.56" rerouteNo="0" devices="tripinfo_23 emissions_23" vType="DEFAULT_VEHTYPE" speedFactor="0.89" vaporized="">
        <emissions CO_abs="2886.370405" CO2_abs="137702.527855" HC_abs="16.357489" PMx_abs="2.446707" NOx_abs="56.590186" fuel_abs="59.193042" electricity_abs="0"/>
    </tripinfo>
    <tripinfo id="33" depart="29.00" departLane="E_in_0" departPos="5.10" departSpeed="0.00" departDelay="2.60" arrival="73.00" arrivalLane="W_out_0" arrivalPos="179.60" arrivalSpeed="15.90" duration="44.00" routeLength="394.90" waitingTime="3.00" waitingCount="1" stopTime="0.00" timeLoss="19.20" rerouteNo="0" devices="tripinfo_33 emissions_33" vType="DEFAULT_VEHTYPE" speedFactor="1.17" vaporized="">
        <emissions CO_abs="2740.878396" CO2_abs="140285.655562" HC_abs="15.784951" PMx_abs="2.688868" NOx_abs="58.512574" fuel_abs="60.302998" electricity_abs="0"/>
    </tripinfo>
    <tripinfo id="42" depart="36.00" departLane="E_out_0" departPos="5.10" departSpeed="0.00" departDelay="2.40" arrival="74.00" arrivalLane="E_in_1" arrivalPos="179.60" arrivalSpeed="12.33" duration="38.00" routeLength="358.77" waitingTime="0.00" waitingCount="0" stopTime="0.00" timeLoss="13.66" rerouteNo="0" devices="tripinfo_42 emissions_42" vType="DEFAULT_VEHTYPE" speedFactor="1.09" vaporized="">
        <emissions CO_abs="2387.354126" CO2_abs="136381.674620" HC_abs="14.094803" PMx_abs="2.560627" NOx_abs="56.968860" fuel_abs="58.624641" electricity_abs="0"/>
    </tripinfo>
    <tripinfo id="72" depart="58.00" departLane="S_out_0" departPos="5.10" departSpeed="0.00" departDelay="0.40" arrival="75.00" arrivalLane="S_out_0" arrivalPos="179.60" arrivalSpeed="12.55" duration="17.00" routeLength="174.50" waitingTime="0.00" waitingCount="0" stopTime="0.00" timeLoss="3.50" rerouteNo="0" devices="tripinfo_72 emissions_72" vType="DEFAULT_VEHTYPE" speedFactor="0.94" vaporized="">
        <emissions CO_abs="950.634727" CO2_abs="53919.299094" HC_abs="5.590029" PMx_abs="0.939707" NOx_abs="21.992889" fuel_abs="23.177721" electricity_abs="0"/>
    </tripinfo>
    <tripinfo id="40" depart="35.00" departLane="W_in_0" departPos="5.10" departSpeed="0.00" departDelay="3.00" arrival="77.00" arrivalLane="W_in_0" arrivalPos="179.60" arrivalSpeed="8.57" duration="42.00" routeLength="174.50" waitingTime="14.00" waitingCount="1" stopTime="0.00" timeLoss="29.31" rerouteNo="0" devices="tripinfo_40 emissions_40" vType="DEFAULT_VEHTYPE" speedFactor="1.03" vaporized="">
        <emissions CO_abs="3225.086925" CO2_abs="109254.966645" HC_abs="17.270266" PMx_abs="2.289898" NOx_abs="47.428599" fuel_abs="46.964764" electricity_abs="0"/>
    </tripinfo>
    <tripinfo id="41" depart="35.00" departLane="E_in_0" departPos="5.10" departSpeed="0.00" departDelay="2.20" arrival="79.00" arrivalLane="W_out_0" arrivalPos="179.60" arrivalSpeed="13.03" duration="44.00" routeLength="394.90" waitingTime="0.00" waitingCount="0" stopTime="0.00" timeLoss="14.26" rerouteNo="0" devices="tripinfo_41 emissions_41" vType="DEFAULT_VEHTYPE" speedFactor="0.96" vaporized="">
        <emissions CO_abs="2524.307569" CO2_abs="125975.524214" HC_abs="14.455804" PMx_abs="2.322469" NOx_abs="52.245615" fuel_abs="54.151832" electricity_abs="0"/>
    </tripinfo>
    <tripinfo id="55" depart="44.00" departLane="E_in_0" departPos="5.10" departSpeed="0.00" departDelay="0.00" arrival="83.00" arrivalLane="N_out_0" arrivalPos="179.60" arrivalSpeed="13.76" duration="39.00" routeLength="394.74" waitingTime="0.00" waitingCount="0" stopTime="0.00" timeLoss="10.15" rerouteNo="0" devices="tripinfo_55 emissions_55" vType="DEFAULT_VEHTYPE" speedFactor="1.00" vaporized="">
        <emissions CO_abs="2314.794402" CO2_abs="135507.530143" HC_abs="13.736398" PMx_abs="2.491244" NOx_abs="56.097348" fuel_abs="58.248933" electricity_abs="0"/>
    </tripinfo>
    <tripinfo id="11" depart="12.00" departLane="W_in_0" departPos="5.10" departSpeed="0.00" departDelay="3.20" arrival="85.00" arrivalLane="S_out_0" arrivalPos="179.60" arrivalSpeed="13.29" duration="73.00" routeLength="394.74" waitingTime="29.00" waitingCount="2" stopTime="0.00" timeLoss="44.56" rerouteNo="0" devices="tripinfo_11 emissions_11" vType="DEFAULT_VEHTYPE" speedFactor="1.03" vaporized="">
        <emissions CO_abs="6001.005119" CO2_abs="184067.801859" HC_abs="31.628410" PMx_abs="3.805763" NOx_abs="79.088914" fuel_abs="79.124709" electricity_abs="0"/>
    </tripinfo>
    <tripinfo id="85" depart="68.00" departLane="E_in_0" departPos="5.10" departSpeed="0.00" departDelay="0.00" arrival="85.00" arrivalLane="E_in_0" arrivalPos="179.60" arrivalSpeed="12.76" duration="17.00" routeLength="174.50" waitingTime="0.00" waitingCount="0" stopTime="0.00" timeLoss="3.86" rerouteNo="0" devices="tripinfo_85 emissions_85" vType="DEFAULT_VEHTYPE" speedFactor="0.98" vaporized="">
        <emissions CO_abs="1056.468034" CO2_abs="56656.304293" HC_abs="6.147264" PMx_abs="1.060523" NOx_abs="23.651064" fuel_abs="24.354179" electricity_abs="0"/>
    </tripinfo>
    <tripinfo id="19" depart="22.00" departLane="W_in_0" departPos="5.10" departSpeed="0.00" departDelay="6.80" arrival="87.00" arrivalLane="E_out_0" arrivalPos="179.60" arrivalSpeed="16.02" duration="65.00" routeLength="394.90" waitingTime="21.00" waitingCount="2" stopTime="0.00" timeLoss="39.58" rerouteNo="0" devices="tripinfo_19 emissions_19" vType="DEFAULT_VEHTYPE" speedFactor="1.16" vaporized="">
        <emissions CO_abs="4490.595631" CO2_abs="179841.281905" HC_abs="24.712844" PMx_abs="3.641313" NOx_abs="76.596844" fuel_abs="77.306834" electricity_abs="0"/>
    </tripinfo>
    <tripinfo id="9" depart="8.00" departLane="E_in_0" departPos="5.10" departSpeed="0.00" departDelay="0.80" arrival="88.00" arrivalLane="S_out_1" arrivalPos="179.60" arrivalSpeed="11.12" duration="80.00" routeLength="384.42" waitingTime="37.00" waitingCount="2" stopTime="0.00" timeLoss="46.83" rerouteNo="0" devices="tripinfo_9 emissions_9" vType="DEFAULT_VEHTYPE" speedFactor="0.86" vaporized="">
        <emissions CO_abs="6347.328265" CO2_abs="185744.584999" HC_abs="33.249438" PMx_abs="3.757333" NOx_abs="79.423499" fuel_abs="79.845870" electricity_abs="0"/>
    </tripinfo>
    <tripinfo id="70" depart="56.00" departLane="E_in_0" departPos="5.10" departSpeed="0.00" departDelay="0.00" arrival="90.00" arrivalLane="S_out_1" arrivalPos="179.60" arrivalSpeed="13.12" duration="34.00" routeLength="384.42" waitingTime="0.00" waitingCount="0" stopTime="0.00" timeLoss="5.76" rerouteNo="0" devices="tripinfo_70 emissions_70" vType="DEFAULT_VEHTYPE" speedFactor="1.02" vaporized="">
        <emissions CO_abs="1685.890587" CO2_abs="116638.609626" HC_abs="10.416453" PMx_abs="2.075228" NOx_abs="47.598136" fuel_abs="50.137851" electricity_abs="0"/>
    </tripinfo>
    <tripinfo id="15" depart="18.00" departLane="W_in_0" departPos="5.10" departSpeed="0.00" departDelay="6.00" arrival="91.00" arrivalLane="S_out_0" arrivalPos="179.60" arrivalSpeed="12.50" duration="73.00" routeLength="394.74" waitingTime="22.00" waitingCount="3" stopTime="0.00" timeLoss="41.60" rerouteNo="0" devices="tripinfo_15 emissions_15" vType="DEFAULT_VEHTYPE" speedFactor="0.93" vaporized="">
        <emissions CO_abs="4490.295195" CO2_abs="168796.215185" HC_abs="24.395098" PMx_abs="3.192176" NOx_abs="70.601593" fuel_abs="72.559549" electricity_abs="0"/>
    </tripinfo>
    <tripinfo id="24" depart="28.00" departLane="W_in_0" departPos="5.10" departSpeed="0.00" departDelay="8.80" arrival="96.00" arrivalLane="E_out_0" arrivalPos="179.60" arrivalSpeed="10.39" duration="68.00" routeLength="394.90" waitingTime="17.00" waitingCount="2" stopTime="0.00" timeLoss="33.19" rerouteNo="0" devices="tripinfo_24 emissions_24" vType="DEFAULT_VEHTYPE" speedFactor="0.83" vaporized="">
        <emissions CO_abs="3939.837187" CO2_abs="147702.858203" HC_abs="21.386592" PMx_abs="2.771944" NOx_abs="61.914622" fuel_abs="63.492271" electricity_abs="0"/>
    </tripinfo>
    <tripinfo id="71" depart="59.00" departLane="E_in_0" departPos="5.10" departSpeed="0.00" departDelay="2.20" arrival="96.00" arrivalLane="S_out_1" arrivalPos="179.60" arrivalSpeed="12.94" duration="37.00" routeLength="384.42" waitingTime="0.00" waitingCount="0" stopTime="0.00" timeLoss="7.34" rerouteNo="0" devices="tripinfo_71 emissions_71" vType="DEFAULT_VEHTYPE" speedFactor="0.97" vaporized="">
        <emissions CO_abs="1725.630522" CO2_abs="113025.069400" HC_abs="10.496141" PMx_abs="1.902838" NOx_abs="45.476238" fuel_abs="48.584788" electricity_abs="0"/>
    </tripinfo>
    <tripinfo id="80" depart="64.00" departLane="E_in_0" departPos="5.10" departSpeed="0.00" departDelay="0.00" arrival="97.00" arrivalLane="S_out_1" arrivalPos="179.60" arrivalSpeed="14.01" duration="33.00" routeLength="384.42" waitingTime="0.00" waitingCount="0" stopTime="0.00" timeLoss="5.85" rerouteNo="0" devices="tripinfo_80 emissions_80" vType="DEFAULT_VEHTYPE" speedFactor="1.03" vaporized="">
        <emissions CO_abs="1759.634710" CO2_abs="112453.280590" HC_abs="10.660223" PMx_abs="2.080772" NOx_abs="46.509641" fuel_abs="48.338742" electricity_abs="0"/>
    </tripinfo>
    <tripinfo id="20" depart="25.00" departLane="W_in_0" departPos="5.10" departSpeed="0.00" departDelay="9.00" arrival="99.00" arrivalLane="S_out_0" arrivalPos="179.60" arrivalSpeed="13.91" duration="74.00" routeLength="394.74" waitingTime="24.00" waitingCount="3" stopTime="0.00" timeLoss="45.87" rerouteNo="0" devices="tripinfo_20 emissions_20" vType="DEFAULT_VEHTYPE" speedFactor="1.02" vaporized="">
        <emissions CO_abs="4885.398486" CO2_abs="173949.685298" HC_abs="26.312935" PMx_abs="3.410405" NOx_abs="73.620525" fuel_abs="74.774869" electricity_abs="0"/>
    </tripinfo>
    <tripinfo id="54" depart="44.00" departLane="W_in_0" departPos="5.10" departSpeed="0.00" departDelay="0.80" arrival="101.00" arrivalLane="S_out_0" arrivalPos="179.60" arrivalSpeed="13.36" duration="57.00" routeLength="394.74" waitingTime="11.00" waitingCount="1" stopTime="0.00" timeLoss="28.30" rerouteNo="0" devices="tripinfo_54 emissions_54" vType="DEFAULT_VEHTYPE" speedFactor="1.00" vaporized="">
        <emissions CO_abs="3636.392378" CO2_abs="162699.592783" HC_abs="20.378309" PMx_abs="3.071240" NOx_abs="67.923950" fuel_abs="69.938250" electricity_abs="0"/>
    </tripinfo>
    <tripinfo id="56" depart="47.00" departLane="W_in_0" departPos="5.10" departSpeed="0.00" departDelay="2.20" arrival="105.00" arrivalLane="E_out_0" arrivalPos="179.60" arrivalSpeed="11.41" duration="58.00" routeLength="394.90" waitingTime="11.00" waitingCount="1" stopTime="0.00" timeLoss="25.53" rerouteNo="0" devices="tripinfo_56 emissions_56" vType="DEFAULT_VEHTYPE" speedFactor="0.90" vaporized="">
        <emissions CO_abs="3601.452251" CO2_abs="144049.147738" HC_abs="19.777330" PMx_abs="2.745966" NOx_abs="60.576007" fuel_abs="61.921406" electricity_abs="0"/>
    </tripinfo>
    <tripinfo id="60" depart="50.00" departLane="W_in_0" departPos="5.10" departSpeed="0.00" departDelay="2.00" arrival="106.00" arrivalLane="S_out_0" arrivalPos="179.60" arrivalSpeed="14.03" duration="56.00" routeLength="394.74" waitingTime="10.00" waitingCount="2" stopTime="0.00" timeLoss="29.49" rerouteNo="0" devices="tripinfo_60 emissions_60" vType="DEFAULT_VEHTYPE" speedFactor="1.08" vaporized="">
        <emissions CO_abs="3775.620216" CO2_abs="162404.457207" HC_abs="21.005459" PMx_abs="3.204998" NOx_abs="68.953254" fuel_abs="69.811265" electricity_abs="0"/>
    </tripinfo>
    <tripinfo id="2" depart="2.00" departLane="W_in_0" departPos="5.10" departSpeed="0.00" departDelay="0.40" arrival="108.00" arrivalLane="N_out_1" arrivalPos="179.60" arrivalSpeed="13.91" duration="106.00" routeLength="384.42" waitingTime="67.00" waitingCount="2" stopTime="0.00" timeLoss="77.98" rerouteNo="0" devices="tripinfo_2 emissions_2" vType="DEFAULT_VEHTYPE" speedFactor="1.01" vaporized="">
        <emissions CO_abs="11585.257552" CO2_abs="274233.324356" HC_abs="59.180257" PMx_abs="6.100757" NOx_abs="120.590010" fuel_abs="117.885518" electricity_abs="0"/>
    </tripinfo>
    <tripinfo id="27" depart="26.00" departLane="N_in_0" departPos="5.10" departSpeed="0.00" departDelay="4.40" arrival="113.00" arrivalLane="S_out_0" arrivalPos="179.60" arrivalSpeed="12.71" duration="87.00" routeLength="394.90" waitingTime="44.00" waitingCount="2" stopTime="0.00" timeLoss="56.36" rerouteNo="0" devices="tripinfo_27 emissions_27" vType="DEFAULT_VEHTYPE" speedFactor="0.95" vaporized="">
        <emissions CO_abs="8192.339401" CO2_abs="217948.121074" HC_abs="42.429982" PMx_abs="4.641639" NOx_abs="94.467225" fuel_abs="93.689482" electricity_abs="0"/>
    </tripinfo>
    <tripinfo id="35" depart="32.00" departLane="S_in_0" departPos="5.10" departSpeed="0.00" departDelay="4.00" arrival="113.00" arrivalLane="N_out_0" arrivalPos="179.60" arrivalSpeed="13.96" duration="81.00" routeLength="394.90" waitingTime="38.00" waitingCount="1" stopTime="0.00" timeLoss="52.53" rerouteNo="0" devices="tripinfo_35 emissions_35" vType="DEFAULT_VEHTYPE" speedFactor="1.02" vaporized="">
        <emissions CO_abs="7680.694924" CO2_abs="227043.245106" HC_abs="40.326836" PMx_abs="4.752195" NOx_abs="97.697572" fuel_abs="97.598623" electricity_abs="0"/>
    </tripinfo>
    <tripinfo id="43" depart="35.00" departLane="N_in_0" departPos="5.10" departSpeed="0.00" departDelay="0.60" arrival="116.00" arrivalLane="S_out_0" arrivalPos="179.60" arrivalSpeed="14.34" duration="81.00" routeLength="394.90" waitingTime="37.00" waitingCount="1" stopTime="0.00" timeLoss="52.73" rerouteNo="0" devices="tripinfo_43 emissions_43" vType="DEFAULT_VEHTYPE" speedFactor="1.04" vaporized="">
        <emissions CO_abs="8013.497064" CO2_abs="226581.876653" HC_abs="41.809106" PMx_abs="4.733249" NOx_abs="97.422421" fuel_abs="97.400608" electricity_abs="0"/>
    </tripinfo>
    <tripinfo id="49" depart="40.00" departLane="S_in_0" departPos="5.10" departSpeed="0.00" departDelay="0.80" arrival="118.00" arrivalLane="N_out_0" arrivalPos="179.60" arrivalSpeed="10.61" duration="78.00" routeLength="394.90" waitingTime="32.00" waitingCount="1" stopTime="0.00" timeLoss="43.97" rerouteNo="0" devices="tripinfo_49 emissions_49" vType="DEFAULT_VEHTYPE" speedFactor="0.85" vaporized="">
        <emissions CO_abs="6736.689530" CO2_abs="188889.930322" HC_abs="35.095992" PMx_abs="3.864954" NOx_abs="81.044541" fuel_abs="81.198131" electricity_abs="0"/>
    </tripinfo>
    <tripinfo id="53" depart="43.00" departLane="S_in_0" departPos="5.10" departSpeed="0.00" departDelay="0.60" arrival="118.00" arrivalLane="E_out_0" arrivalPos="179.60" arrivalSpeed="14.32" duration="75.00" routeLength="394.74" waitingTime="31.00" waitingCount="1" stopTime="0.00" timeLoss="48.06" rerouteNo="0" devices="tripinfo_53 emissions_53" vType="DEFAULT_VEHTYPE" speedFactor="1.10" vaporized="">
        <emissions CO_abs="7228.219262" CO2_abs="218053.335459" HC_abs="38.029277" PMx_abs="4.540607" NOx_abs="93.715991" fuel_abs="93.734049" electricity_abs="0"/>
    </tripinfo>
    <tripinfo id="66" depart="55.00" departLane="S_in_0" departPos="5.10" departSpeed="0.00" departDelay="2.20" arrival="120.00" arrivalLane="N_out_0" arrivalPos="179.60" arrivalSpeed="12.15" duration="65.00" routeLength="394.90" waitingTime="22.00" waitingCount="1" stopTime="0.00" timeLoss="33.63" rerouteNo="0" devices="tripinfo_66 emissions_66" vType="DEFAULT_VEHTYPE" speedFactor="0.91" vaporized="">
        <emissions CO_abs="5103.804011" CO2_abs="169674.282321" HC_abs="27.206905" PMx_abs="3.286393" NOx_abs="71.421615" fuel_abs="72.937390" electricity_abs="0"/>
    </tripinfo>
    <tripinfo id="130" depart="106.00" departLane="E_out_0" departPos="5.10" departSpeed="0.00" departDelay="2.00" arrival="122.00" arrivalLane="E_out_0" arrivalPos="179.60" arrivalSpeed="14.09" duration="16.00" routeLength="174.50" waitingTime="0.00" waitingCount="0" stopTime="0.00" timeLoss="3.58" rerouteNo="0" devices="tripinfo_130 emissions_130" vType="DEFAULT_VEHTYPE" speedFactor="1.03" vaporized="">
        <emissions CO_abs="1054.147050" CO2_abs="60827.051801" HC_abs="6.239864" PMx_abs="1.146305" NOx_abs="25.386733" fuel_abs="26.146934" electricity_abs="0"/>
    </tripinfo>
    <tripinfo id="82" depart="70.00" departLane="S_in_0" departPos="5.10" departSpeed="0.00" departDelay="4.40" arrival="126.00" arrivalLane="S_in_0" arrivalPos="179.60" arrivalSpeed="9.83" duration="56.00" routeLength="174.50" waitingTime="20.00" waitingCount="2" stopTime="0.00" timeLoss="43.32" rerouteNo="0" devices="tripinfo_82 emissions_82" vType="DEFAULT_VEHTYPE" speedFactor="1.02" vaporized="">
        <emissions CO_abs="4165.774735" CO2_abs="122222.739644" HC_abs="21.845965" PMx_abs="2.576675" NOx_abs="53.177777" fuel_abs="52.539593" electricity_abs="0"/>
    </tripinfo>
    <tripinfo id="76" depart="61.00" departLane="S_in_0" departPos="5.10" departSpeed="0.00" departDelay="0.20" arrival="129.00" arrivalLane="E_out_0" arrivalPos="179.60" arrivalSpeed="13.27" duration="68.00" routeLength="394.74" waitingTime="22.00" waitingCount="2" stopTime="0.00" timeLoss="40.29" rerouteNo="0" devices="tripinfo_76 emissions_76" vType="DEFAULT_VEHTYPE" speedFactor="1.03" vaporized="">
        <emissions CO_abs="5486.847511" CO2_abs="191761.774438" HC_abs="29.485012" PMx_abs="3.843049" NOx_abs="81.653925" fuel_abs="82.431625" electricity_abs="0"/>
    </tripinfo>