<?xml version="1.0" encoding="UTF-8"?>

<!-- generated on 2025-10-31 11:40:19 by Eclipse SUMO sumo Version 1.12.0
<configuration xmlns:xsi="http://www.w3.org/2001/XMLSchema-instance" xsi:noNamespaceSchemaLocation="http://sumo.dlr.de/xsd/sumoConfiguration.xsd">

    <input>
        <net-file value="/home/azureuser/traffic_rl/junctions/uhuru/cross.net.xml"/>
        <route-files value="/home/azureuser/traffic_rl/junctions/uhuru/stress.rou.xml"/>
        <additional-files value="/home/azureuser/traffic_rl/junctions/uhuru/detectors.add.xml"/>
    </input>

    <output>
        <emission-output value="live_emissions.xml"/>
        <tripinfo-output value="live_trips.xml"/>
    </output>

    <time>
        <step-length value="1.0"/>
    </time>

    <report>
        <no-step-log value="true"/>
    </report>

    <traci_server>
    </traci_server>

    <gui_only>
        <quit-on-end value="true"/>
        <start value="true"/>
        <tracker-interval value="1.0"/>
    </gui_only>

</configuration>
-->

<tripinfos xmlns:xsi="http://www.w3.org/2001/XMLSchema-instance" xsi:noNamespaceSchemaLocation="http://sumo.dlr.de/xsd/tripinfo_file.xsd">
    <tripinfo id="1" depart="1.00" departLane="E_out_0" departPos="5.10" departSpeed="0.00" departDelay="0.20" arrival="18.00" arrivalLane="E_out_0" arrivalPos="179.60" arrivalSpeed="13.00" duration="17.00" routeLength="174.50" waitingTime="0.00" waitingCount="0" stopTime="0.00" timeLoss="3.43" rerouteNo="0" devices="tripinfo_1 emissions_1" vType="DEFAULT_VEHTYPE" speedFactor="0.94" vaporized="">
        <emissions CO_abs="1030.329080" CO2_abs="56669.429499" HC_abs="6.027634" PMx_abs="1.052578" NOx_abs="23.613092" fuel_abs="24.359809" electricity_abs="0"/>
    </tripinfo>
    <tripinfo id="5" depart="4.00" departLane="N_out_0" departPos="5.10" departSpeed="0.00" departDelay="0.00" arrival="23.00" arrivalLane="N_out_0" arrivalPos="179.60" arrivalSpeed="10.70" duration="19.00" routeLength="174.50" waitingTime="0.00" waitingCount="0" stopTime="0.00" timeLoss="3.77" rerouteNo="0" devices="tripinfo_5 emissions_5" vType="DEFAULT_VEHTYPE" speedFactor="0.83" vaporized="">
        <emissions CO_abs="1005.782487" CO2_abs="50152.275419" HC_abs="5.753950" PMx_abs="0.910211" NOx_abs="20.844244" fuel_abs="21.558463" electricity_abs="0"/>
    </tripinfo>
    <tripinfo id="21" depart="17.00" departLane="W_out_0" departPos="5.10" departSpeed="0.00" departDelay="0.20" arrival="33.00" arrivalLane="W_out_0" arrivalPos="179.60" arrivalSpeed="13.52" duration="16.00" routeLength="174.50" waitingTime="0.00" waitingCount="0" stopTime="0.00" timeLoss="3.44" rerouteNo="0" devices="tripinfo_21 emissions_21" vType="DEFAULT_VEHTYPE" speedFactor="1.01" vaporized="">
        <emissions CO_abs="1076.031608" CO2_abs="61351.926843" HC_abs="6.353051" PMx_abs="1.163655" NOx_abs="25.649780" fuel_abs="26.372555" electricity_abs="0"/>
    </tripinfo>
    <tripinfo id="3" depart="3.00" departLane="N_in_0" departPos="5.10" departSpeed="0.00" departDelay="0.60" arrival="34.00" arrivalLane="S_out_0" arrivalPos="179.60" arrivalSpeed="14.90" duration="31.00" routeLength="394.90" waitingTime="0.00" waitingCount="0" stopTime="0.00" timeLoss="4.33" rerouteNo="0" devices="tripinfo_3 emissions_3" vType="DEFAULT_VEHTYPE" speedFactor="1.08" vaporized="">
        <emissions CO_abs="1157.032628" CO2_abs="88779.825066" HC_abs="7.301056" PMx_abs="1.471727" NOx_abs="35.160030" fuel_abs="38.162663" electricity_abs="0"/>
    </tripinfo>
    <tripinfo id="4" depart="4.00" departLane="S_in_0" departPos="5.10" departSpeed="0.00" departDelay="0.80" arrival="36.00" arrivalLane="W_out_1" arrivalPos="179.60" arrivalSpeed="13.61" duration="32.00" routeLength="384.42" waitingTime="0.00" waitingCount="0" stopTime="0.00" timeLoss="4.47" rerouteNo="0" devices="tripinfo_4 emissions_4" vType="DEFAULT_VEHTYPE" speedFactor="1.03" vaporized="">
        <emissions CO_abs="1458.386101" CO2_abs="99896.977533" HC_abs="8.998702" PMx_abs="1.779607" NOx_abs="40.706250" fuel_abs="42.941373" electricity_abs="0"/>
    </tripinfo>
    <tripinfo id="0" depart="0.00" departLane="N_in_0" departPos="5.10" departSpeed="0.00" departDelay="0.00" arrival="38.00" arrivalLane="E_out_1" arrivalPos="179.60" arrivalSpeed="13.75" duration="38.00" routeLength="384.42" waitingTime="2.00" waitingCount="1" stopTime="0.00" timeLoss="11.42" rerouteNo="0" devices="tripinfo_0 emissions_0" vType="DEFAULT_VEHTYPE" speedFactor="1.06" vaporized="">
        <emissions CO_abs="2218.005753" CO2_abs="132255.051667" HC_abs="13.208580" PMx_abs="2.439245" NOx_abs="54.613123" fuel_abs="56.850800" electricity_abs="0"/>
    </tripinfo>
    <tripinfo id="2" depart="2.00" departLane="W_in_0" departPos="5.10" departSpeed="0.00" departDelay="0.40" arrival="41.00" arrivalLane="N_out_1" arrivalPos="179.60" arrivalSpeed="13.71" duration="39.00" routeLength="384.42" waitingTime="2.00" waitingCount="1" stopTime="0.00" timeLoss="10.41" rerouteNo="0" devices="tripinfo_2 emissions_2" vType="DEFAULT_VEHTYPE" speedFactor="1.01" vaporized="">
        <emissions CO_abs="1918.418238" CO2_abs="115112.247193" HC_abs="11.392308" PMx_abs="2.069692" NOx_abs="47.239678" fuel_abs="49.481899" electricity_abs="0"/>
    </tripinfo>
    <tripinfo id="37" depart="30.00" departLane="E_out_0" departPos="5.10" departSpeed="0.00" departDelay="0.40" arrival="45.00" arrivalLane="E_out_0" arrivalPos="179.60" arrivalSpeed="15.84" duration="15.00" routeLength="174.50" waitingTime="0.00" waitingCount="0" stopTime="0.00" timeLoss="3.94" rerouteNo="0" devices="tripinfo_37 emissions_37" vType="DEFAULT_VEHTYPE" speedFactor="1.18" vaporized="">
        <emissions CO_abs="1148.299755" CO2_abs="70181.322682" HC_abs="6.888964" PMx_abs="1.335820" NOx_abs="29.151019" fuel_abs="30.167876" electricity_abs="0"/>
    </tripinfo>
    <tripinfo id="11" depart="12.00" departLane="W_in_0" departPos="5.10" departSpeed="0.00" departDelay="3.20" arrival="48.00" arrivalLane="S_out_0" arrivalPos="179.60" arrivalSpeed="13.66" duration="36.00" routeLength="394.74" waitingTime="0.00" waitingCount="0" stopTime="0.00" timeLoss="7.30" rerouteNo="0" devices="tripinfo_11 emissions_11" vType="DEFAULT_VEHTYPE" speedFactor="1.03" vaporized="">
        <emissions CO_abs="1791.703199" CO2_abs="117965.031716" HC_abs="10.901139" PMx_abs="2.060535" NOx_abs="47.873646" fuel_abs="50.708154" electricity_abs="0"/>
    </tripinfo>
    <tripinfo id="38" depart="33.00" departLane="E_out_0" departPos="5.10" departSpeed="0.00" departDelay="2.60" arrival="48.00" arrivalLane="E_out_0" arrivalPos="179.60" arrivalSpeed="14.73" duration="15.00" routeLength="174.50" waitingTime="0.00" waitingCount="0" stopTime="0.00" timeLoss="3.48" rerouteNo="0" devices="tripinfo_38 emissions_38" vType="DEFAULT_VEHTYPE" speedFactor="1.10" vaporized="">
        <emissions CO_abs="1064.225313" CO2_abs="58395.853814" HC_abs="6.239675" PMx_abs="1.171371" NOx_abs="24.870542" fuel_abs="25.101799" electricity_abs="0"/>
    </tripinfo>
    <tripinfo id="7" depart="6.00" departLane="W_in_0" departPos="5.10" departSpeed="0.00" departDelay="0.40" arrival="50.00" arrivalLane="N_out_1" arrivalPos="179.60" arrivalSpeed="11.81" duration="44.00" routeLength="384.42" waitingTime="3.00" waitingCount="1" stopTime="0.00" timeLoss="12.09" rerouteNo="0" devices="tripinfo_7 emissions_7" vType="DEFAULT_VEHTYPE" speedFactor="0.89" vaporized="">
        <emissions CO_abs="1907.399619" CO2_abs="110627.370955" HC_abs="11.260083" PMx_abs="1.860914" NOx_abs="44.788622" fuel_abs="47.554277" electricity_abs="0"/>
    </tripinfo>
    <tripinfo id="9" depart="8.00" departLane="E_in_0" departPos="5.10" departSpeed="0.00" departDelay="0.80" arrival="51.00" arrivalLane="S_out_1" arrivalPos="179.60" arrivalSpeed="11.73" duration="43.00" routeLength="384.42" waitingTime="2.00" waitingCount="1" stopTime="0.00" timeLoss="9.85" rerouteNo="0" devices="tripinfo_9 emissions_9" vType="DEFAULT_VEHTYPE" speedFactor="0.86" vaporized="">
        <emissions CO_abs="1956.163206" CO2_abs="116605.817925" HC_abs="11.622418" PMx_abs="1.959577" NOx_abs="47.206487" fuel_abs="50.124127" electricity_abs="0"/>
    </tripinfo>
    <tripinfo id="8" depart="7.00" departLane="N_in_0" departPos="5.10" departSpeed="0.00" departDelay="0.60" arrival="53.00" arrivalLane="S_out_0" arrivalPos="179.60" arrivalSpeed="12.99" duration="46.00" routeLength="394.90" waitingTime="7.00" waitingCount="1" stopTime="0.00" timeLoss="15.21" rerouteNo="0" devices="tripinfo_8 emissions_8" vType="DEFAULT_VEHTYPE" speedFactor="0.94" vaporized="">
        <emissions CO_abs="2280.042931" CO2_abs="121519.759578" HC_abs="13.235722" PMx_abs="2.196774" NOx_abs="50.085218" fuel_abs="52.236414" electricity_abs="0"/>
    </tripinfo>
    <tripinfo id="40" depart="34.00" departLane="W_in_0" departPos="5.10" departSpeed="0.00" departDelay="2.00" arrival="53.00" arrivalLane="W_in_0" arrivalPos="179.60" arrivalSpeed="10.57" duration="19.00" routeLength="174.50" waitingTime="0.00" waitingCount="0" stopTime="0.00" timeLoss="6.46" rerouteNo="0" devices="tripinfo_40 emissions_40" vType="DEFAULT_VEHTYPE" speedFactor="1.03" vaporized="">
        <emissions CO_abs="1379.730438" CO2_abs="71892.382509" HC_abs="7.986070" PMx_abs="1.391629" NOx_abs="30.326381" fuel_abs="30.903494" electricity_abs="0"/>
    </tripinfo>
    <tripinfo id="46" depart="37.00" departLane="N_out_0" departPos="5.10" departSpeed="0.00" departDelay="0.20" arrival="54.00" arrivalLane="N_out_0" arrivalPos="179.60" arrivalSpeed="13.69" duration="17.00" routeLength="174.50" waitingTime="0.00" waitingCount="0" stopTime="0.00" timeLoss="3.65" rerouteNo="0" devices="tripinfo_46 emissions_46" vType="DEFAULT_VEHTYPE" speedFactor="1.00" vaporized="">
        <emissions CO_abs="1051.821570" CO2_abs="63401.479051" HC_abs="6.279813" PMx_abs="1.127759" NOx_abs="25.954904" fuel_abs="27.253640" electricity_abs="0"/>
    </tripinfo>
    <tripinfo id="6" depart="7.00" departLane="S_in_0" departPos="5.10" departSpeed="0.00" departDelay="2.20" arrival="56.00" arrivalLane="E_out_0" arrivalPos="179.60" arrivalSpeed="14.08" duration="49.00" routeLength="394.74" waitingTime="7.00" waitingCount="1" stopTime="0.00" timeLoss="21.66" rerouteNo="0" devices="tripinfo_6 emissions_6" vType="DEFAULT_VEHTYPE" speedFactor="1.05" vaporized="">
        <emissions CO_abs="3103.293860" CO2_abs="145337.609323" HC_abs="17.567446" PMx_abs="2.814346" NOx_abs="61.163760" fuel_abs="62.474772" electricity_abs="0"/>
    </tripinfo>
    <tripinfo id="17" depart="14.00" departLane="S_in_0" departPos="5.10" departSpeed="0.00" departDelay="0.40" arrival="56.00" arrivalLane="W_out_1" arrivalPos="179.60" arrivalSpeed="11.89" duration="42.00" routeLength="384.42" waitingTime="2.00" waitingCount="1" stopTime="0.00" timeLoss="12.08" rerouteNo="0" devices="tripinfo_17 emissions_17" vType="DEFAULT_VEHTYPE" speedFactor="0.94" vaporized="">
        <emissions CO_abs="2147.003879" CO2_abs="122046.165523" HC_abs="12.650684" PMx_abs="2.235952" NOx_abs="50.606419" fuel_abs="52.462515" electricity_abs="0"/>
    </tripinfo>
    <tripinfo id="48" depart="39.00" departLane="W_out_0" departPos="5.10" departSpeed="0.00" departDelay="0.60" arrival="57.00" arrivalLane="W_out_0" arrivalPos="179.60" arrivalSpeed="11.24" duration="18.00" routeLength="174.50" waitingTime="0.00" waitingCount="0" stopTime="0.00" timeLoss="3.44" rerouteNo="0" devices="tripinfo_48 emissions_48" vType="DEFAULT_VEHTYPE" speedFactor="0.88" vaporized="">
        <emissions CO_abs="979.431949" CO2_abs="48957.640088" HC_abs="5.611692" PMx_abs="0.915707" NOx_abs="20.498172" fuel_abs="21.044896" electricity_abs="0"/>
    </tripinfo>
    <tripinfo id="51" depart="41.00" departLane="S_out_0" departPos="5.10" departSpeed="0.00" departDelay="0.20" arrival="57.00" arrivalLane="S_out_0" arrivalPos="179.60" arrivalSpeed="16.06" duration="16.00" routeLength="174.50" waitingTime="0.00" waitingCount="0" stopTime="0.00" timeLoss="4.38" rerouteNo="0" devices="tripinfo_51 emissions_51" vType="DEFAULT_VEHTYPE" speedFactor="1.17" vaporized="">
        <emissions CO_abs="1234.780251" CO2_abs="73632.532985" HC_abs="7.321208" PMx_abs="1.392434" NOx_abs="30.537429" fuel_abs="31.651431" electricity_abs="0"/>
    </tripinfo>
    <tripinfo id="18" depart="16.00" departLane="N_in_0" departPos="5.10" departSpeed="0.00" departDelay="1.60" arrival="59.00" arrivalLane="E_out_1" arrivalPos="179.60" arrivalSpeed="12.70" duration="43.00" routeLength="384.42" waitingTime="4.00" waitingCount="1" stopTime="0.00" timeLoss="12.84" rerouteNo="0" devices="tripinfo_18 emissions_18" vType="DEFAULT_VEHTYPE" speedFactor="0.94" vaporized="">
        <emissions CO_abs="2009.085948" CO2_abs="118620.278192" HC_abs="11.917889" PMx_abs="2.022779" NOx_abs="48.045781" fuel_abs="50.990051" electricity_abs="0"/>
    </tripinfo>
    <tripinfo id="16" depart="13.00" departLane="N_in_0" departPos="5.10" departSpeed="0.00" departDelay="0.20" arrival="62.00" arrivalLane="W_out_0" arrivalPos="179.60" arrivalSpeed="11.70" duration="49.00" routeLength="394.74" waitingTime="2.00" waitingCount="2" stopTime="0.00" timeLoss="16.25" rerouteNo="0" devices="tripinfo_16 emissions_16" vType="DEFAULT_VEHTYPE" speedFactor="0.88" vaporized="">
        <emissions CO_abs="2391.280457" CO2_abs="118224.245681" HC_abs="13.670885" PMx_abs="2.222615" NOx_abs="49.620148" fuel_abs="50.819788" electricity_abs="0"/>
    </tripinfo>
    <tripinfo id="22" depart="18.00" departLane="S_in_0" departPos="5.10" departSpeed="0.00" departDelay="0.40" arrival="63.00" arrivalLane="E_out_0" arrivalPos="179.60" arrivalSpeed="12.29" duration="45.00" routeLength="394.74" waitingTime="0.00" waitingCount="0" stopTime="0.00" timeLoss="15.46" rerouteNo="0" devices="tripinfo_22 emissions_22" vType="DEFAULT_VEHTYPE" speedFactor="0.98" vaporized="">
        <emissions CO_abs="2445.253879" CO2_abs="131378.493437" HC_abs="14.224260" PMx_abs="2.405094" NOx_abs="54.453277" fuel_abs="56.474209" electricity_abs="0"/>
    </tripinfo>
    <tripinfo id="19" depart="22.00" departLane="W_in_0" departPos="5.10" departSpeed="0.00" departDelay="6.80" arrival="65.00" arrivalLane="E_out_0" arrivalPos="179.60" arrivalSpeed="16.02" duration="43.00" routeLength="394.90" waitingTime="2.00" waitingCount="1" stopTime="0.00" timeLoss="17.69" rerouteNo="0" devices="tripinfo_19 emissions_19" vType="DEFAULT_VEHTYPE" speedFactor="1.16" vaporized="">
        <emissions CO_abs="2643.464013" CO2_abs="149931.569272" HC_abs="15.544900" PMx_abs="2.844597" NOx_abs="62.588167" fuel_abs="64.449147" electricity_abs="0"/>
    </tripinfo>
    <tripinfo id="15" depart="18.00" departLane="W_in_0" departPos="5.10" departSpeed="0.00" departDelay="6.00" arrival="67.00" arrivalLane="S_out_0" arrivalPos="179.60" arrivalSpeed="12.61" duration="49.00" routeLength="394.74" waitingTime="4.00" waitingCount="1" stopTime="0.00" timeLoss="17.94" rerouteNo="0" devices="tripinfo_15 emissions_15" vType="DEFAULT_VEHTYPE" speedFactor="0.93" vaporized="">
        <emissions CO_abs="2661.044192" CO2_abs="133735.590456" HC_abs="15.260820" PMx_abs="2.476540" NOx_abs="55.724043" fuel_abs="57.487521" electricity_abs="0"/>
    </tripinfo>
    <tripinfo id="28" depart="23.00" departLane="E_in_0" departPos="5.10" departSpeed="0.00" departDelay="0.60" arrival="67.00" arrivalLane="W_out_0" arrivalPos="179.60" arrivalSpeed="15.56" duration="44.00" routeLength="394.90" waitingTime="3.00" waitingCount="2" stopTime="0.00" timeLoss="18.45" rerouteNo="0" devices="tripinfo_28 emissions_28" vType="DEFAULT_VEHTYPE" speedFactor="1.13" vaporized="">
        <emissions CO_abs="2699.633463" CO2_abs="148621.490618" HC_abs="15.783351" PMx_abs="2.874986" NOx_abs="62.313076" fuel_abs="63.885994" electricity_abs="0"/>
    </tripinfo>
    <tripinfo id="42" depart="36.00" departLane="E_out_0" departPos="5.10" departSpeed="0.00" departDelay="2.40" arrival="69.00" arrivalLane="E_in_1" arrivalPos="179.60" arrivalSpeed="14.14" duration="33.00" routeLength="358.77" waitingTime="0.00" waitingCount="0" stopTime="0.00" timeLoss="8.33" rerouteNo="0" devices="tripinfo_42 emissions_42" vType="DEFAULT_VEHTYPE" speedFactor="1.09" vaporized="">
        <emissions CO_abs="1944.179822" CO2_abs="122378.266964" HC_abs="11.715977" PMx_abs="2.197513" NOx_abs="50.026552" fuel_abs="52.605202" electricity_abs="0"/>
    </tripinfo>
    <tripinfo id="10" depart="9.00" departLane="W_in_0" departPos="5.10" departSpeed="0.00" departDelay="1.00" arrival="71.00" arrivalLane="N_out_1" arrivalPos="179.60" arrivalSpeed="14.36" duration="62.00" routeLength="384.42" waitingTime="20.00" waitingCount="3" stopTime="0.00" timeLoss="36.25" rerouteNo="0" devices="tripinfo_10 emissions_10" vType="DEFAULT_VEHTYPE" speedFactor="1.09" vaporized="">
        <emissions CO_abs="3533.038854" CO2_abs="149322.639632" HC_abs="19.604481" PMx_abs="2.952288" NOx_abs="63.171479" fuel_abs="64.187981" electricity_abs="0"/>
    </tripinfo>
    <tripinfo id="33" depart="29.00" departLane="E_in_0" departPos="5.10" departSpeed="0.00" departDelay="2.60" arrival="71.00" arrivalLane="W_out_0" arrivalPos="179.60" arrivalSpeed="15.90" duration="42.00" routeLength="394.90" waitingTime="0.00" waitingCount="0" stopTime="0.00" timeLoss="17.08" rerouteNo="0" devices="tripinfo_33 emissions_33" vType="DEFAULT_VEHTYPE" speedFactor="1.17" vaporized="">
        <emissions CO_abs="2759.179346" CO2_abs="146664.359799" HC_abs="16.029034" PMx_abs="2.854890" NOx_abs="61.596460" fuel_abs="63.044766" electricity_abs="0"/>
    </tripinfo>
    <tripinfo id="24" depart="28.00" departLane="W_in_0" departPos="5.10" departSpeed="0.00" departDelay="8.80" arrival="72.00" arrivalLane="E_out_0" arrivalPos="179.60" arrivalSpeed="11.41" duration="44.00" routeLength="394.90" waitingTime="0.00" waitingCount="0" stopTime="0.00" timeLoss="9.44" rerouteNo="0" devices="tripinfo_24 emissions_24" vType="DEFAULT_VEHTYPE" speedFactor="0.83" vaporized="">
        <emissions CO_abs="2271.578775" CO2_abs="120971.632393" HC_abs="13.163119" PMx_abs="2.099143" NOx_abs="49.571076" fuel_abs="52.000903" electricity_abs="0"/>
    </tripinfo>
    <tripinfo id="72" depart="58.00" departLane="S_out_0" departPos="5.10" departSpeed="0.00" departDelay="0.40" arrival="75.00" arrivalLane="S_out_0" arrivalPos="179.60" arrivalSpeed="13.04" duration="17.00" routeLength="174.50" waitingTime="0.00" waitingCount="0" stopTime="0.00" timeLoss="3.03" rerouteNo="0" devices="tripinfo_72 emissions_72" vType="DEFAULT_VEHTYPE" speedFactor="0.94" vaporized="">
        <emissions CO_abs="1085.537746" CO2_abs="64740.311366" HC_abs="6.472316" PMx_abs="1.198366" NOx_abs="26.882845" fuel_abs="27.829078" electricity_abs="0"/>
    </tripinfo>
    <tripinfo id="41" depart="35.00" departLane="E_in_0" departPos="5.10" departSpeed="0.00" departDelay="2.20" arrival="77.00" arrivalLane="W_out_0" arrivalPos="179.60" arrivalSpeed="13.00" duration="42.00" routeLength="394.90" waitingTime="0.00" waitingCount="0" stopTime="0.00" timeLoss="12.24" rerouteNo="0" devices="tripinfo_41 emissions_41" vType="DEFAULT_VEHTYPE" speedFactor="0.96" vaporized="">
        <emissions CO_abs="2315.629781" CO2_abs="128295.676382" HC_abs="13.555824" PMx_abs="2.305204" NOx_abs="52.862739" fuel_abs="55.149041" electricity_abs="0"/>
    </tripinfo>
    <tripinfo id="20" depart="25.00" departLane="W_in_0" departPos="5.10" departSpeed="0.00" departDelay="9.00" arrival="82.00" arrivalLane="S_out_0" arrivalPos="179.60" arrivalSpeed="13.39" duration="57.00" routeLength="394.74" waitingTime="10.00" waitingCount="1" stopTime="0.00" timeLoss="28.28" rerouteNo="0" devices="tripinfo_20 emissions_20" vType="DEFAULT_VEHTYPE" speedFactor="1.02" vaporized="">
        <emissions CO_abs="3756.755442" CO2_abs="159297.610055" HC_abs="20.846174" PMx_abs="3.037312" NOx_abs="66.728118" fuel_abs="68.475989" electricity_abs="0"/>
    </tripinfo>
    <tripinfo id="85" depart="68.00" departLane="E_in_0" departPos="5.10" departSpeed="0.00" departDelay="0.00" arrival="85.00" arrivalLane="E_in_0" arrivalPos="179.60" arrivalSpeed="13.27" duration="17.00" routeLength="174.50" waitingTime="0.00" waitingCount="0" stopTime="0.00" timeLoss="3.90" rerouteNo="0" devices="tripinfo_85 emissions_85" vType="DEFAULT_VEHTYPE" speedFactor="0.98" vaporized="">
        <emissions CO_abs="1048.373897" CO2_abs="57747.650902" HC_abs="6.131404" PMx_abs="1.046451" NOx_abs="23.815115" fuel_abs="24.823338" electricity_abs="0"/>
    </tripinfo>
    <tripinfo id="14" depart="12.00" departLane="E_in_0" departPos="5.10" departSpeed="0.00" departDelay="0.80" arrival="86.00" arrivalLane="E_out_0" arrivalPos="179.60" arrivalSpeed="13.24" duration="74.00" routeLength="799.57" waitingTime="1.00" waitingCount="1" stopTime="0.00" timeLoss="15.14" rerouteNo="0" devices="tripinfo_14 emissions_14" vType="DEFAULT_VEHTYPE" speedFactor="0.99" vaporized="">
        <emissions CO_abs="3320.128475" CO2_abs="213019.316909" HC_abs="20.088690" PMx_abs="3.720461" NOx_abs="86.525621" fuel_abs="91.568020" electricity_abs="0"/>
    </tripinfo>
    <tripinfo id="56" depart="47.00" departLane="W_in_0" departPos="5.10" departSpeed="0.00" departDelay="2.20" arrival="90.00" arrivalLane="E_out_0" arrivalPos="179.60" arrivalSpeed="12.08" duration="43.00" routeLength="394.90" waitingTime="0.00" waitingCount="0" stopTime="0.00" timeLoss="10.60" rerouteNo="0" devices="tripinfo_56 emissions_56" vType="DEFAULT_VEHTYPE" speedFactor="0.90" vaporized="">
        <emissions CO_abs="2173.752447" CO2_abs="118034.026833" HC_abs="12.646943" PMx_abs="2.017058" NOx_abs="48.004778" fuel_abs="50.738171" electricity_abs="0"/>
    </tripinfo>
    <tripinfo id="13" depart="11.00" departLane="N_out_0" departPos="5.10" departSpeed="0.00" departDelay="0.60" arrival="93.00" arrivalLane="N_in_1" arrivalPos="179.60" arrivalSpeed="7.37" duration="82.00" routeLength="358.77" waitingTime="43.00" waitingCount="1" stopTime="0.00" timeLoss="58.41" rerouteNo="0" devices="tripinfo_13 emissions_13" vType="DEFAULT_VEHTYPE" speedFactor="1.12" vaporized="">
        <emissions CO_abs="8690.948982" CO2_abs="234753.292106" HC_abs="45.064059" PMx_abs="5.126409" NOx_abs="102.587777" fuel_abs="100.913210" electricity_abs="0"/>
    </tripinfo>
    <tripinfo id="54" depart="44.00" departLane="W_in_0" departPos="5.10" departSpeed="0.00" departDelay="0.80" arrival="98.00" arrivalLane="S_out_0" arrivalPos="179.60" arrivalSpeed="13.06" duration="54.00" routeLength="394.74" waitingTime="13.00" waitingCount="2" stopTime="0.00" timeLoss="25.45" rerouteNo="0" devices="tripinfo_54 emissions_54" vType="DEFAULT_VEHTYPE" speedFactor="1.00" vaporized="">
        <emissions CO_abs="2993.428623" CO2_abs="128169.946260" HC_abs="16.655251" PMx_abs="2.501721" NOx_abs="54.196233" fuel_abs="55.095263" electricity_abs="0"/>
    </tripinfo>
    <tripinfo id="23" depart="19.00" departLane="E_in_0" departPos="5.10" departSpeed="0.00" departDelay="0.60" arrival="99.00" arrivalLane="N_out_0" arrivalPos="179.60" arrivalSpeed="11.47" duration="80.00" routeLength="394.74" waitingTime="32.00" waitingCount="3" stopTime="0.00" timeLoss="47.36" rerouteNo="0" devices="tripinfo_23 emissions_23" vType="DEFAULT_VEHTYPE" speedFactor="0.89" vaporized="">
        <emissions CO_abs="6762.084443" CO2_abs="201243.312908" HC_abs="35.506409" PMx_abs="4.084138" NOx_abs="86.163569" fuel_abs="86.508173" electricity_abs="0"/>
    </tripinfo>
    <tripinfo id="60" depart="50.00" departLane="W_in_0" departPos="5.10" departSpeed="0.00" departDelay="2.00" arrival="100.00" arrivalLane="S_out_0" arrivalPos="179.60" arrivalSpeed="13.96" duration="50.00" routeLength="394.74" waitingTime="5.00" waitingCount="1" stopTime="0.00" timeLoss="23.28" rerouteNo="0" devices="tripinfo_60 emissions_60" vType="DEFAULT_VEHTYPE" speedFactor="1.08" vaporized="">
        <emissions CO_abs="2476.474424" CO2_abs="137199.301699" HC_abs="14.477866" PMx_abs="2.499044" NOx_abs="56.655184" fuel_abs="58.976297" electricity_abs="0"/>
    </tripinfo>
    <tripinfo id="73" depart="59.00" departLane="W_in_0" departPos="5.10" departSpeed="0.00" departDelay="0.60" arrival="101.00" arrivalLane="E_out_0" arrivalPos="179.60" arrivalSpeed="14.11" duration="42.00" routeLength="394.90" waitingTime="4.00" waitingCount="1" stopTime="0.00" timeLoss="14.38" rerouteNo="0" devices="tripinfo_73 emissions_73" vType="DEFAULT_VEHTYPE" speedFactor="1.06" vaporized="">
        <emissions CO_abs="2113.886963" CO2_abs="123614.368574" HC_abs="12.549420" PMx_abs="2.303015" NOx_abs="51.282702" fuel_abs="53.136532" electricity_abs="0"/>
    </tripinfo>
    <tripinfo id="59" depart="48.00" departLane="W_out_0" departPos="5.10" departSpeed="0.00" departDelay="0.80" arrival="104.00" arrivalLane="W_in_0" arrivalPos="179.60" arrivalSpeed="5.67" duration="56.00" routeLength="358.77" waitingTime="7.00" waitingCount="1" stopTime="0.00" timeLoss="28.38" rerouteNo="0" devices="tripinfo_59 emissions_59" vType="DEFAULT_VEHTYPE" speedFactor="0.97" vaporized="">
        <emissions CO_abs="3305.487637" CO2_abs="144678.200347" HC_abs="18.449694" PMx_abs="2.776697" NOx_abs="61.014756" fuel_abs="62.191510" electricity_abs="0"/>
    </tripinfo>
    <tripinfo id="12" depart="15.00" departLane="W_in_0" departPos="5.10" departSpeed="0.00" departDelay="5.40" arrival="106.00" arrivalLane="N_out_1" arrivalPos="179.60" arrivalSpeed="6.89" duration="91.00" routeLength="384.42" waitingTime="40.00" waitingCount="3" stopTime="0.00" timeLoss="64.03" rerouteNo="0" devices="tripinfo_12 emissions_12" vType="DEFAULT_VEHTYPE" speedFactor="1.05" vaporized="">
        <emissions CO_abs="7183.639392" CO2_abs="201903.238068" HC_abs="37.481904" PMx_abs="4.369909" NOx_abs="88.196251" fuel_abs="86.791781" electricity_abs="0"/>
    </tripinfo>
    <tripinfo id="25" depart="20.00" departLane="N_in_0" departPos="5.10" departSpeed="0.00" departDelay="0.00" arrival="108.00" arrivalLane="E_out_1" arrivalPos="179.60" arrivalSpeed="12.03" duration="88.00" routeLength="384.42" waitingTime="44.00" waitingCount="1" stopTime="0.00" timeLoss="55.75" rerouteNo="0" devices="tripinfo_25 emissions_25" vType="DEFAULT_VEHTYPE" speedFactor="0.87" vaporized="">
        <emissions CO_abs="8507.436286" CO2_abs="215087.447195" HC_abs="43.771800" PMx_abs="4.526395" NOx_abs="93.027371" fuel_abs="92.460192" electricity_abs="0"/>
    </tripinfo>
    <tripinfo id="70" depart="56.00" departLane="E_in_0" departPos="5.10" departSpeed="0.00" departDelay="0.00" arrival="108.00" arrivalLane="S_out_1" arrivalPos="179.60" arrivalSpeed="6.72" duration="52.00" routeLength="384.42" waitingTime="13.00" waitingCount="1" stopTime="0.00" timeLoss="24.34" rerouteNo="0" devices="tripinfo_70 emissions_70" vType="DEFAULT_VEHTYPE" speedFactor="1.02" vaporized="">
        <emissions CO_abs="3767.044035" CO2_abs="152884.429320" HC_abs="20.761584" PMx_abs="3.050806" NOx_abs="65.058362" fuel_abs="65.719122" electricity_abs="0"/>
    </tripinfo>
    <tripinfo id="55" depart="44.00" departLane="E_in_0" departPos="5.10" departSpeed="0.00" departDelay="0.00" arrival="109.00" arrivalLane="N_out_0" arrivalPos="179.60" arrivalSpeed="13.70" duration="65.00" routeLength="394.74" waitingTime="18.00" waitingCount="2" stopTime="0.00" timeLoss="36.29" rerouteNo="0" devices="tripinfo_55 emissions_55" vType="DEFAULT_VEHTYPE" speedFactor="1.00" vaporized="">
        <emissions CO_abs="4480.125351" CO2_abs="171199.427235" HC_abs="24.425304" PMx_abs="3.343954" NOx_abs="72.368859" fuel_abs="73.592371" electricity_abs="0"/>
    </tripinfo>
    <tripinfo id="26" depart="23.00" departLane="N_in_0" departPos="5.10" departSpeed="0.00" departDelay="2.20" arrival="110.00" arrivalLane="E_out_1" arrivalPos="179.60" arrivalSpeed="11.54" duration="87.00" routeLength="384.42" waitingTime="44.00" waitingCount="1" stopTime="0.00" timeLoss="56.16" rerouteNo="0" devices="tripinfo_26 emissions_26" vType="DEFAULT_VEHTYPE" speedFactor="0.92" vaporized="">
        <emissions CO_abs="8305.285429" CO2_abs="213416.183371" HC_abs="42.819875" PMx_abs="4.506457" NOx_abs="92.364744" fuel_abs="91.741625" electricity_abs="0"/>
    </tripinfo>
    <tripinfo id="32" depart="26.00" departLane="S_in_0" departPos="5.10" departSpeed="0.00" departDelay="0.40" arrival="111.00" arrivalLane="W_out_1" arrivalPos="179.60" arrivalSpeed="13.03" duration="85.00" routeLength="384.42" waitingTime="42.00" waitingCount="1" stopTime="0.00" timeLoss="56.13" rerouteNo="0" devices="tripinfo_32 emissions_32" vType="DEFAULT_VEHTYPE" speedFactor="1.01" vaporized="">
        <emissions CO_abs="8054.582001" CO2_abs="220695.911372" HC_abs="41.865025" PMx_abs="4.656711" NOx_abs="95.355902" fuel_abs="94.870538" electricity_abs="0"/>
    </tripinfo>
    <tripinfo id="27" depart="26.00" departLane="N_in_0" departPos="5.10" departSpeed="0.00" departDelay="4.40" arrival="112.00" arrivalLane="S_out_0" arrivalPos="179.60" arrivalSpeed="13.15" duration="86.00" routeLength="394.90" waitingTime="45.00" waitingCount="3" stopTime="0.00" timeLoss="56.05" rerouteNo="0" devices="tripinfo_27 emissions_27" vType="DEFAULT_VEHTYPE" speedFactor="0.95" vaporized="">
        <emissions CO_abs="8520.937089" CO2_abs="224960.198750" HC_abs="44.073818" PMx_abs="4.703679" NOx_abs="96.844888" fuel_abs="96.703967" electricity_abs="0"/>
    </tripinfo>
    <tripinfo id="39" depart="35.00" departLane="S_in_0" departPos="5.10" departSpeed="0.00" departDelay="3.80" arrival="114.00" arrivalLane="W_out_1" arrivalPos="179.60" arrivalSpeed="12.41" duration="79.00" routeLength="384.42" waitingTime="33.00" waitingCount="1" stopTime="0.00" timeLoss="47.28" rerouteNo="0" devices="tripinfo_39 emissions_39" vType="DEFAULT_VEHTYPE" speedFactor="0.90" vaporized="">
        <emissions CO_abs="6991.922557" CO2_abs="194858.647873" HC_abs="36.398667" PMx_abs="3.992052" NOx_abs="83.563004" fuel_abs="83.763941" electricity_abs="0"/>
    </tripinfo>