<?xml version="1.0" encoding="UTF-8"?>

<!-- generated on 2025-10-25 12:47:33 by Eclipse SUMO sumo Version 1.12.0
<configuration xmlns:xsi="http://www.w3.org/2001/XMLSchema-instance" xsi:noNamespaceSchemaLocation="http://sumo.dlr.de/xsd/sumoConfiguration.xsd">

    <input>
        <net-file value="/home/azureuser/traffic_rl/junctions/uhuru/cross.net.xml"/>
        <route-files value="/home/azureuser/traffic_rl/junctions/uhuru/stress.rou.xml"/>
        <additional-files value="/home/azureuser/traffic_rl/junctions/uhuru/detectors.add.xml"/>
    </input>

    <output>
        <emission-output value="dqn_emissions.xml"/>
        <tripinfo-output value="dqn_trips.xml"/>
    </output>

    <time>
        <step-length value="1.0"/>
    </time>

    <traci_server>
    </traci_server>

    <gui_only>
        <quit-on-end value="true"/>
        <start value="true"/>
        <tracker-interval value="1.0"/>
    </gui_only>

</configuration>
-->

<tripinfos xmlns:xsi="http://www.w3.org/2001/XMLSchema-instance" xsi:noNamespaceSchemaLocation="http://sumo.dlr.de/xsd/tripinfo_file.xsd">
    <tripinfo id="1" depart="1.00" departLane="E_out_0" departPos="5.10" departSpeed="0.00" departDelay="0.20" arrival="18.00" arrivalLane="E_out_0" arrivalPos="179.60" arrivalSpeed="13.00" duration="17.00" routeLength="174.50" waitingTime="0.00" waitingCount="0" stopTime="0.00" timeLoss="3.43" rerouteNo="0" devices="tripinfo_1 emissions_1" vType="DEFAULT_VEHTYPE" speedFactor="0.94" vaporized="">
        <emissions CO_abs="1030.329080" CO2_abs="56669.429499" HC_abs="6.027634" PMx_abs="1.052578" NOx_abs="23.613092" fuel_abs="24.359809" electricity_abs="0"/>
    </tripinfo>
    <tripinfo id="5" depart="4.00" departLane="N_out_0" departPos="5.10" departSpeed="0.00" departDelay="0.00" arrival="23.00" arrivalLane="N_out_0" arrivalPos="179.60" arrivalSpeed="10.70" duration="19.00" routeLength="174.50" waitingTime="0.00" waitingCount="0" stopTime="0.00" timeLoss="3.77" rerouteNo="0" devices="tripinfo_5 emissions_5" vType="DEFAULT_VEHTYPE" speedFactor="0.83" vaporized="">
        <emissions CO_abs="1005.782487" CO2_abs="50152.275419" HC_abs="5.753950" PMx_abs="0.910211" NOx_abs="20.844244" fuel_abs="21.558463" electricity_abs="0"/>
    </tripinfo>
    <tripinfo id="21" depart="17.00" departLane="W_out_0" departPos="5.10" departSpeed="0.00" departDelay="0.20" arrival="33.00" arrivalLane="W_out_0" arrivalPos="179.60" arrivalSpeed="13.52" duration="16.00" routeLength="174.50" waitingTime="0.00" waitingCount="0" stopTime="0.00" timeLoss="3.44" rerouteNo="0" devices="tripinfo_21 emissions_21" vType="DEFAULT_VEHTYPE" speedFactor="1.01" vaporized="">
        <emissions CO_abs="1076.031608" CO2_abs="61351.926843" HC_abs="6.353051" PMx_abs="1.163655" NOx_abs="25.649780" fuel_abs="26.372555" electricity_abs="0"/>
    </tripinfo>
    <tripinfo id="3" depart="3.00" departLane="N_in_0" departPos="5.10" departSpeed="0.00" departDelay="0.60" arrival="34.00" arrivalLane="S_out_0" arrivalPos="179.60" arrivalSpeed="13.96" duration="31.00" routeLength="394.90" waitingTime="0.00" waitingCount="0" stopTime="0.00" timeLoss="4.38" rerouteNo="0" devices="tripinfo_3 emissions_3" vType="DEFAULT_VEHTYPE" speedFactor="1.08" vaporized="">
        <emissions CO_abs="1162.957287" CO2_abs="86183.940710" HC_abs="7.269937" PMx_abs="1.454302" NOx_abs="34.357561" fuel_abs="37.046791" electricity_abs="0"/>
    </tripinfo>
    <tripinfo id="8" depart="7.00" departLane="N_in_0" departPos="5.10" departSpeed="0.00" departDelay="0.60" arrival="41.00" arrivalLane="S_out_0" arrivalPos="179.60" arrivalSpeed="12.54" duration="34.00" routeLength="394.90" waitingTime="0.00" waitingCount="0" stopTime="0.00" timeLoss="3.67" rerouteNo="0" devices="tripinfo_8 emissions_8" vType="DEFAULT_VEHTYPE" speedFactor="0.94" vaporized="">
        <emissions CO_abs="1180.523932" CO2_abs="89373.072392" HC_abs="7.454792" PMx_abs="1.411291" NOx_abs="35.194629" fuel_abs="38.417779" electricity_abs="0"/>
    </tripinfo>
    <tripinfo id="0" depart="0.00" departLane="N_in_0" departPos="5.10" departSpeed="0.00" departDelay="0.00" arrival="43.00" arrivalLane="E_out_1" arrivalPos="179.60" arrivalSpeed="13.75" duration="43.00" routeLength="384.42" waitingTime="7.00" waitingCount="1" stopTime="0.00" timeLoss="16.01" rerouteNo="0" devices="tripinfo_0 emissions_0" vType="DEFAULT_VEHTYPE" speedFactor="1.06" vaporized="">
        <emissions CO_abs="2541.216075" CO2_abs="137403.357918" HC_abs="14.806839" PMx_abs="2.601719" NOx_abs="57.238461" fuel_abs="59.063930" electricity_abs="0"/>
    </tripinfo>
    <tripinfo id="4" depart="4.00" departLane="S_in_0" departPos="5.10" departSpeed="0.00" departDelay="0.80" arrival="43.00" arrivalLane="W_out_1" arrivalPos="179.60" arrivalSpeed="14.04" duration="39.00" routeLength="384.42" waitingTime="3.00" waitingCount="1" stopTime="0.00" timeLoss="11.31" rerouteNo="0" devices="tripinfo_4 emissions_4" vType="DEFAULT_VEHTYPE" speedFactor="1.03" vaporized="">
        <emissions CO_abs="1994.976662" CO2_abs="119662.946761" HC_abs="11.855256" PMx_abs="2.187010" NOx_abs="49.285480" fuel_abs="51.438005" electricity_abs="0"/>
    </tripinfo>
    <tripinfo id="6" depart="7.00" departLane="S_in_0" departPos="5.10" departSpeed="0.00" departDelay="2.20" arrival="43.00" arrivalLane="E_out_0" arrivalPos="179.60" arrivalSpeed="14.08" duration="36.00" routeLength="394.74" waitingTime="0.00" waitingCount="0" stopTime="0.00" timeLoss="7.86" rerouteNo="0" devices="tripinfo_6 emissions_6" vType="DEFAULT_VEHTYPE" speedFactor="1.05" vaporized="">
        <emissions CO_abs="1990.924190" CO2_abs="124403.724344" HC_abs="11.990076" PMx_abs="2.284967" NOx_abs="51.299881" fuel_abs="53.475783" electricity_abs="0"/>
    </tripinfo>
    <tripinfo id="37" depart="31.00" departLane="E_out_0" departPos="5.10" departSpeed="0.00" departDelay="1.40" arrival="46.00" arrivalLane="E_out_0" arrivalPos="179.60" arrivalSpeed="15.51" duration="15.00" routeLength="174.50" waitingTime="0.00" waitingCount="0" stopTime="0.00" timeLoss="3.81" rerouteNo="0" devices="tripinfo_37 emissions_37" vType="DEFAULT_VEHTYPE" speedFactor="1.18" vaporized="">
        <emissions CO_abs="1106.760229" CO2_abs="66210.712065" HC_abs="6.602630" PMx_abs="1.276187" NOx_abs="27.666538" fuel_abs="28.461073" electricity_abs="0"/>
    </tripinfo>
    <tripinfo id="2" depart="2.00" departLane="W_in_0" departPos="5.10" departSpeed="0.00" departDelay="0.40" arrival="49.00" arrivalLane="N_out_1" arrivalPos="179.60" arrivalSpeed="13.30" duration="47.00" routeLength="384.42" waitingTime="7.00" waitingCount="1" stopTime="0.00" timeLoss="18.31" rerouteNo="0" devices="tripinfo_2 emissions_2" vType="DEFAULT_VEHTYPE" speedFactor="1.01" vaporized="">
        <emissions CO_abs="2472.934428" CO2_abs="123711.089701" HC_abs="14.168279" PMx_abs="2.367690" NOx_abs="51.912459" fuel_abs="53.178296" electricity_abs="0"/>
    </tripinfo>
    <tripinfo id="38" depart="34.00" departLane="E_out_0" departPos="5.10" departSpeed="0.00" departDelay="3.60" arrival="50.00" arrivalLane="E_out_0" arrivalPos="179.60" arrivalSpeed="14.05" duration="16.00" routeLength="174.50" waitingTime="0.00" waitingCount="0" stopTime="0.00" timeLoss="4.41" rerouteNo="0" devices="tripinfo_38 emissions_38" vType="DEFAULT_VEHTYPE" speedFactor="1.10" vaporized="">
        <emissions CO_abs="1256.269635" CO2_abs="69273.939843" HC_abs="7.367003" PMx_abs="1.344222" NOx_abs="29.091990" fuel_abs="29.777884" electricity_abs="0"/>
    </tripinfo>
    <tripinfo id="9" depart="8.00" departLane="E_in_0" departPos="5.10" departSpeed="0.00" departDelay="0.80" arrival="51.00" arrivalLane="S_out_1" arrivalPos="179.60" arrivalSpeed="11.73" duration="43.00" routeLength="384.42" waitingTime="0.00" waitingCount="0" stopTime="0.00" timeLoss="9.99" rerouteNo="0" devices="tripinfo_9 emissions_9" vType="DEFAULT_VEHTYPE" speedFactor="0.86" vaporized="">
        <emissions CO_abs="2222.593999" CO2_abs="122683.997925" HC_abs="12.976508" PMx_abs="2.087770" NOx_abs="49.876497" fuel_abs="52.736988" electricity_abs="0"/>
    </tripinfo>
    <tripinfo id="7" depart="6.00" departLane="W_in_0" departPos="5.10" departSpeed="0.00" departDelay="0.40" arrival="54.00" arrivalLane="N_out_1" arrivalPos="179.60" arrivalSpeed="11.18" duration="48.00" routeLength="384.42" waitingTime="3.00" waitingCount="1" stopTime="0.00" timeLoss="15.55" rerouteNo="0" devices="tripinfo_7 emissions_7" vType="DEFAULT_VEHTYPE" speedFactor="0.89" vaporized="">
        <emissions CO_abs="2254.399825" CO2_abs="115423.129164" HC_abs="12.958488" PMx_abs="2.023027" NOx_abs="47.316252" fuel_abs="49.615877" electricity_abs="0"/>
    </tripinfo>
    <tripinfo id="11" depart="12.00" departLane="W_in_0" departPos="5.10" departSpeed="0.00" departDelay="3.20" arrival="54.00" arrivalLane="S_out_0" arrivalPos="179.60" arrivalSpeed="14.14" duration="42.00" routeLength="394.74" waitingTime="3.00" waitingCount="1" stopTime="0.00" timeLoss="13.43" rerouteNo="0" devices="tripinfo_11 emissions_11" vType="DEFAULT_VEHTYPE" speedFactor="1.03" vaporized="">
        <emissions CO_abs="2243.419420" CO2_abs="132001.948340" HC_abs="13.305441" PMx_abs="2.369263" NOx_abs="54.076894" fuel_abs="56.742128" electricity_abs="0"/>
    </tripinfo>
    <tripinfo id="46" depart="37.00" departLane="N_out_0" departPos="5.10" departSpeed="0.00" departDelay="0.20" arrival="54.00" arrivalLane="N_out_0" arrivalPos="179.60" arrivalSpeed="13.69" duration="17.00" routeLength="174.50" waitingTime="0.00" waitingCount="0" stopTime="0.00" timeLoss="3.65" rerouteNo="0" devices="tripinfo_46 emissions_46" vType="DEFAULT_VEHTYPE" speedFactor="1.00" vaporized="">
        <emissions CO_abs="1051.821570" CO2_abs="63401.479051" HC_abs="6.279813" PMx_abs="1.127759" NOx_abs="25.954904" fuel_abs="27.253640" electricity_abs="0"/>
    </tripinfo>
    <tripinfo id="48" depart="39.00" departLane="W_out_0" departPos="5.10" departSpeed="0.00" departDelay="0.60" arrival="57.00" arrivalLane="W_out_0" arrivalPos="179.60" arrivalSpeed="11.92" duration="18.00" routeLength="174.50" waitingTime="0.00" waitingCount="0" stopTime="0.00" timeLoss="3.42" rerouteNo="0" devices="tripinfo_48 emissions_48" vType="DEFAULT_VEHTYPE" speedFactor="0.88" vaporized="">
        <emissions CO_abs="1035.092306" CO2_abs="55654.976664" HC_abs="6.017601" PMx_abs="0.997039" NOx_abs="22.954239" fuel_abs="23.923815" electricity_abs="0"/>
    </tripinfo>
    <tripinfo id="51" depart="41.00" departLane="S_out_0" departPos="5.10" departSpeed="0.00" departDelay="0.20" arrival="57.00" arrivalLane="S_out_0" arrivalPos="179.60" arrivalSpeed="15.73" duration="16.00" routeLength="174.50" waitingTime="0.00" waitingCount="0" stopTime="0.00" timeLoss="5.07" rerouteNo="0" devices="tripinfo_51 emissions_51" vType="DEFAULT_VEHTYPE" speedFactor="1.17" vaporized="">
        <emissions CO_abs="1233.185351" CO2_abs="68539.622952" HC_abs="7.238121" PMx_abs="1.289260" NOx_abs="28.438239" fuel_abs="29.462295" electricity_abs="0"/>
    </tripinfo>
    <tripinfo id="18" depart="16.00" departLane="N_in_0" departPos="5.10" departSpeed="0.00" departDelay="1.60" arrival="61.00" arrivalLane="E_out_1" arrivalPos="179.60" arrivalSpeed="10.58" duration="45.00" routeLength="384.42" waitingTime="1.00" waitingCount="1" stopTime="0.00" timeLoss="14.54" rerouteNo="0" devices="tripinfo_18 emissions_18" vType="DEFAULT_VEHTYPE" speedFactor="0.94" vaporized="">
        <emissions CO_abs="2176.903787" CO2_abs="115499.766123" HC_abs="12.620526" PMx_abs="2.076139" NOx_abs="47.634308" fuel_abs="49.648679" electricity_abs="0"/>
    </tripinfo>
    <tripinfo id="17" depart="14.00" departLane="S_in_0" departPos="5.10" departSpeed="0.00" departDelay="0.40" arrival="63.00" arrivalLane="W_out_1" arrivalPos="179.60" arrivalSpeed="12.48" duration="49.00" routeLength="384.42" waitingTime="7.00" waitingCount="2" stopTime="0.00" timeLoss="19.03" rerouteNo="0" devices="tripinfo_17 emissions_17" vType="DEFAULT_VEHTYPE" speedFactor="0.94" vaporized="">
        <emissions CO_abs="2256.633279" CO2_abs="127033.873883" HC_abs="13.255606" PMx_abs="2.263568" NOx_abs="52.181086" fuel_abs="54.606646" electricity_abs="0"/>
    </tripinfo>
    <tripinfo id="13" depart="11.00" departLane="N_out_0" departPos="5.10" departSpeed="0.00" departDelay="0.60" arrival="64.00" arrivalLane="N_in_1" arrivalPos="179.60" arrivalSpeed="4.12" duration="53.00" routeLength="358.77" waitingTime="6.00" waitingCount="2" stopTime="0.00" timeLoss="29.19" rerouteNo="0" devices="tripinfo_13 emissions_13" vType="DEFAULT_VEHTYPE" speedFactor="1.12" vaporized="">
        <emissions CO_abs="3124.632559" CO2_abs="143756.818042" HC_abs="17.572960" PMx_abs="2.821356" NOx_abs="60.738150" fuel_abs="61.795232" electricity_abs="0"/>
    </tripinfo>
    <tripinfo id="16" depart="13.00" departLane="N_in_0" departPos="5.10" departSpeed="0.00" departDelay="0.20" arrival="64.00" arrivalLane="W_out_0" arrivalPos="179.60" arrivalSpeed="11.22" duration="51.00" routeLength="394.74" waitingTime="6.00" waitingCount="2" stopTime="0.00" timeLoss="18.35" rerouteNo="0" devices="tripinfo_16 emissions_16" vType="DEFAULT_VEHTYPE" speedFactor="0.88" vaporized="">
        <emissions CO_abs="2428.171581" CO2_abs="122681.881870" HC_abs="13.935902" PMx_abs="2.252795" NOx_abs="51.088484" fuel_abs="52.735987" electricity_abs="0"/>
    </tripinfo>
    <tripinfo id="27" depart="26.00" departLane="N_in_0" departPos="5.10" departSpeed="0.00" departDelay="4.40" arrival="64.00" arrivalLane="S_out_0" arrivalPos="179.60" arrivalSpeed="13.06" duration="38.00" routeLength="394.90" waitingTime="0.00" waitingCount="0" stopTime="0.00" timeLoss="7.63" rerouteNo="0" devices="tripinfo_27 emissions_27" vType="DEFAULT_VEHTYPE" speedFactor="0.95" vaporized="">
        <emissions CO_abs="1936.660250" CO2_abs="118928.081486" HC_abs="11.621462" PMx_abs="2.152500" NOx_abs="48.988884" fuel_abs="51.122105" electricity_abs="0"/>
    </tripinfo>
    <tripinfo id="10" depart="9.00" departLane="W_in_0" departPos="5.10" departSpeed="0.00" departDelay="1.00" arrival="69.00" arrivalLane="N_out_1" arrivalPos="179.60" arrivalSpeed="14.60" duration="60.00" routeLength="384.42" waitingTime="10.00" waitingCount="3" stopTime="0.00" timeLoss="34.04" rerouteNo="0" devices="tripinfo_10 emissions_10" vType="DEFAULT_VEHTYPE" speedFactor="1.09" vaporized="">
        <emissions CO_abs="3498.716097" CO2_abs="149292.118058" HC_abs="19.415764" PMx_abs="2.938963" NOx_abs="63.087073" fuel_abs="64.174845" electricity_abs="0"/>
    </tripinfo>
    <tripinfo id="25" depart="20.00" departLane="N_in_0" departPos="5.10" departSpeed="0.00" departDelay="0.00" arrival="69.00" arrivalLane="E_out_1" arrivalPos="179.60" arrivalSpeed="10.87" duration="49.00" routeLength="384.42" waitingTime="3.00" waitingCount="1" stopTime="0.00" timeLoss="16.28" rerouteNo="0" devices="tripinfo_25 emissions_25" vType="DEFAULT_VEHTYPE" speedFactor="0.87" vaporized="">
        <emissions CO_abs="2240.921073" CO2_abs="120437.767052" HC_abs="13.018248" PMx_abs="2.118381" NOx_abs="49.467586" fuel_abs="51.771361" electricity_abs="0"/>
    </tripinfo>
    <tripinfo id="23" depart="19.00" departLane="E_in_0" departPos="5.10" departSpeed="0.00" departDelay="0.60" arrival="71.00" arrivalLane="N_out_0" arrivalPos="179.60" arrivalSpeed="11.94" duration="52.00" routeLength="394.74" waitingTime="8.00" waitingCount="1" stopTime="0.00" timeLoss="19.24" rerouteNo="0" devices="tripinfo_23 emissions_23" vType="DEFAULT_VEHTYPE" speedFactor="0.89" vaporized="">
        <emissions CO_abs="3048.775091" CO2_abs="139080.917888" HC_abs="17.140846" PMx_abs="2.557374" NOx_abs="57.771121" fuel_abs="59.785536" electricity_abs="0"/>
    </tripinfo>
    <tripinfo id="42" depart="37.00" departLane="E_out_0" departPos="5.10" departSpeed="0.00" departDelay="3.40" arrival="71.00" arrivalLane="E_in_1" arrivalPos="179.60" arrivalSpeed="14.80" duration="34.00" routeLength="358.77" waitingTime="0.00" waitingCount="0" stopTime="0.00" timeLoss="9.43" rerouteNo="0" devices="tripinfo_42 emissions_42" vType="DEFAULT_VEHTYPE" speedFactor="1.09" vaporized="">
        <emissions CO_abs="2021.901514" CO2_abs="121475.040908" HC_abs="12.000565" PMx_abs="2.233005" NOx_abs="50.047788" fuel_abs="52.216927" electricity_abs="0"/>
    </tripinfo>
    <tripinfo id="22" depart="18.00" departLane="S_in_0" departPos="5.10" departSpeed="0.00" departDelay="0.40" arrival="72.00" arrivalLane="E_out_0" arrivalPos="179.60" arrivalSpeed="12.70" duration="54.00" routeLength="394.74" waitingTime="9.00" waitingCount="1" stopTime="0.00" timeLoss="24.46" rerouteNo="0" devices="tripinfo_22 emissions_22" vType="DEFAULT_VEHTYPE" speedFactor="0.98" vaporized="">
        <emissions CO_abs="3035.356760" CO2_abs="138669.944374" HC_abs="17.081213" PMx_abs="2.617695" NOx_abs="58.041262" fuel_abs="59.608766" electricity_abs="0"/>
    </tripinfo>
    <tripinfo id="15" depart="18.00" departLane="W_in_0" departPos="5.10" departSpeed="0.00" departDelay="6.00" arrival="74.00" arrivalLane="S_out_0" arrivalPos="179.60" arrivalSpeed="12.50" duration="56.00" routeLength="394.74" waitingTime="12.00" waitingCount="2" stopTime="0.00" timeLoss="24.80" rerouteNo="0" devices="tripinfo_15 emissions_15" vType="DEFAULT_VEHTYPE" speedFactor="0.93" vaporized="">
        <emissions CO_abs="3559.224473" CO2_abs="157650.107832" HC_abs="19.912051" PMx_abs="2.976328" NOx_abs="65.981043" fuel_abs="67.767687" electricity_abs="0"/>
    </tripinfo>
    <tripinfo id="72" depart="60.00" departLane="S_out_0" departPos="5.10" departSpeed="0.00" departDelay="2.40" arrival="78.00" arrivalLane="S_out_0" arrivalPos="179.60" arrivalSpeed="12.20" duration="18.00" routeLength="174.50" waitingTime="0.00" waitingCount="0" stopTime="0.00" timeLoss="3.77" rerouteNo="0" devices="tripinfo_72 emissions_72" vType="DEFAULT_VEHTYPE" speedFactor="0.94" vaporized="">
        <emissions CO_abs="923.072163" CO2_abs="52584.519765" HC_abs="5.430706" PMx_abs="0.903723" NOx_abs="21.383551" fuel_abs="22.603967" electricity_abs="0"/>
    </tripinfo>
    <tripinfo id="32" depart="26.00" departLane="S_in_0" departPos="5.10" departSpeed="0.00" departDelay="0.40" arrival="79.00" arrivalLane="W_out_1" arrivalPos="179.60" arrivalSpeed="13.59" duration="53.00" routeLength="384.42" waitingTime="10.00" waitingCount="2" stopTime="0.00" timeLoss="25.08" rerouteNo="0" devices="tripinfo_32 emissions_32" vType="DEFAULT_VEHTYPE" speedFactor="1.01" vaporized="">
        <emissions CO_abs="3227.556587" CO2_abs="145103.485696" HC_abs="18.123459" PMx_abs="2.809633" NOx_abs="61.083391" fuel_abs="62.374241" electricity_abs="0"/>
    </tripinfo>
    <tripinfo id="50" depart="40.00" departLane="N_out_0" departPos="5.10" departSpeed="0.00" departDelay="0.00" arrival="79.00" arrivalLane="N_in_1" arrivalPos="179.60" arrivalSpeed="11.88" duration="39.00" routeLength="358.77" waitingTime="0.00" waitingCount="0" stopTime="0.00" timeLoss="7.07" rerouteNo="0" devices="tripinfo_50 emissions_50" vType="DEFAULT_VEHTYPE" speedFactor="0.85" vaporized="">
        <emissions CO_abs="1861.543770" CO2_abs="105552.000112" HC_abs="10.951466" PMx_abs="1.885829" NOx_abs="43.558539" fuel_abs="45.372434" electricity_abs="0"/>
    </tripinfo>
    <tripinfo id="19" depart="22.00" departLane="W_in_0" departPos="5.10" departSpeed="0.00" departDelay="6.80" arrival="80.00" arrivalLane="E_out_0" arrivalPos="179.60" arrivalSpeed="15.00" duration="58.00" routeLength="394.90" waitingTime="17.00" waitingCount="2" stopTime="0.00" timeLoss="33.19" rerouteNo="0" devices="tripinfo_19 emissions_19" vType="DEFAULT_VEHTYPE" speedFactor="1.16" vaporized="">
        <emissions CO_abs="4586.169299" CO2_abs="170557.966962" HC_abs="24.854309" PMx_abs="3.513046" NOx_abs="73.035546" fuel_abs="73.316469" electricity_abs="0"/>
    </tripinfo>
    <tripinfo id="28" depart="23.00" departLane="E_in_0" departPos="5.10" departSpeed="0.00" departDelay="0.60" arrival="80.00" arrivalLane="W_out_0" arrivalPos="179.60" arrivalSpeed="15.05" duration="57.00" routeLength="394.90" waitingTime="17.00" waitingCount="2" stopTime="0.00" timeLoss="31.75" rerouteNo="0" devices="tripinfo_28 emissions_28" vType="DEFAULT_VEHTYPE" speedFactor="1.13" vaporized="">
        <emissions CO_abs="4151.880556" CO2_abs="167013.228799" HC_abs="22.812346" PMx_abs="3.356747" NOx_abs="70.786052" fuel_abs="71.792580" electricity_abs="0"/>
    </tripinfo>
    <tripinfo id="26" depart="23.00" departLane="N_in_0" departPos="5.10" departSpeed="0.00" departDelay="2.20" arrival="81.00" arrivalLane="E_out_1" arrivalPos="179.60" arrivalSpeed="12.30" duration="58.00" routeLength="384.42" waitingTime="8.00" waitingCount="2" stopTime="0.00" timeLoss="26.77" rerouteNo="0" devices="tripinfo_26 emissions_26" vType="DEFAULT_VEHTYPE" speedFactor="0.92" vaporized="">
        <emissions CO_abs="3043.956667" CO2_abs="134791.978297" HC_abs="17.008191" PMx_abs="2.435124" NOx_abs="55.652138" fuel_abs="57.942034" electricity_abs="0"/>
    </tripinfo>
    <tripinfo id="33" depart="29.00" departLane="E_in_0" departPos="5.10" departSpeed="0.00" departDelay="2.60" arrival="84.00" arrivalLane="W_out_0" arrivalPos="179.60" arrivalSpeed="15.86" duration="55.00" routeLength="394.90" waitingTime="12.00" waitingCount="2" stopTime="0.00" timeLoss="30.55" rerouteNo="0" devices="tripinfo_33 emissions_33" vType="DEFAULT_VEHTYPE" speedFactor="1.17" vaporized="">
        <emissions CO_abs="3229.211711" CO2_abs="147042.773513" HC_abs="18.181408" PMx_abs="2.928557" NOx_abs="62.242159" fuel_abs="63.207720" electricity_abs="0"/>
    </tripinfo>
    <tripinfo id="40" depart="34.00" departLane="W_in_0" departPos="5.10" departSpeed="0.00" departDelay="2.00" arrival="87.00" arrivalLane="W_in_1" arrivalPos="179.60" arrivalSpeed="3.90" duration="53.00" routeLength="174.50" waitingTime="17.00" waitingCount="4" stopTime="0.00" timeLoss="40.62" rerouteNo="0" devices="tripinfo_40 emissions_40" vType="DEFAULT_VEHTYPE" speedFactor="1.03" vaporized="">
        <emissions CO_abs="2474.170829" CO2_abs="84929.056431" HC_abs="13.265058" PMx_abs="1.721156" NOx_abs="36.490252" fuel_abs="36.507995" electricity_abs="0"/>
    </tripinfo>
    <tripinfo id="12" depart="15.00" departLane="W_in_0" departPos="5.10" departSpeed="0.00" departDelay="5.40" arrival="89.00" arrivalLane="N_out_1" arrivalPos="179.60" arrivalSpeed="14.26" duration="74.00" routeLength="384.42" waitingTime="21.00" waitingCount="3" stopTime="0.00" timeLoss="47.11" rerouteNo="0" devices="tripinfo_12 emissions_12" vType="DEFAULT_VEHTYPE" speedFactor="1.05" vaporized="">
        <emissions CO_abs="3972.959463" CO2_abs="157489.456323" HC_abs="21.754988" PMx_abs="3.064022" NOx_abs="66.340990" fuel_abs="67.698856" electricity_abs="0"/>
    </tripinfo>
    <tripinfo id="24" depart="28.00" departLane="W_in_0" departPos="5.10" departSpeed="0.00" departDelay="8.80" arrival="89.00" arrivalLane="E_out_0" arrivalPos="179.60" arrivalSpeed="11.13" duration="61.00" routeLength="394.90" waitingTime="11.00" waitingCount="2" stopTime="0.00" timeLoss="26.51" rerouteNo="0" devices="tripinfo_24 emissions_24" vType="DEFAULT_VEHTYPE" speedFactor="0.83" vaporized="">
        <emissions CO_abs="3007.502417" CO2_abs="130039.156894" HC_abs="16.721420" PMx_abs="2.321902" NOx_abs="53.668307" fuel_abs="55.899060" electricity_abs="0"/>
    </tripinfo>
    <tripinfo id="20" depart="25.00" departLane="W_in_0" departPos="5.10" departSpeed="0.00" departDelay="9.00" arrival="90.00" arrivalLane="S_out_0" arrivalPos="179.60" arrivalSpeed="13.87" duration="65.00" routeLength="394.74" waitingTime="17.00" waitingCount="3" stopTime="0.00" timeLoss="36.63" rerouteNo="0" devices="tripinfo_20 emissions_20" vType="DEFAULT_VEHTYPE" speedFactor="1.02" vaporized="">
        <emissions CO_abs="4071.724745" CO2_abs="165004.252035" HC_abs="22.411354" PMx_abs="3.173568" NOx_abs="69.309668" fuel_abs="70.929168" electricity_abs="0"/>
    </tripinfo>
    <tripinfo id="35" depart="32.00" departLane="S_in_0" departPos="5.10" departSpeed="0.00" departDelay="4.00" arrival="92.00" arrivalLane="N_out_0" arrivalPos="179.60" arrivalSpeed="13.99" duration="60.00" routeLength="394.90" waitingTime="18.00" waitingCount="2" stopTime="0.00" timeLoss="32.02" rerouteNo="0" devices="tripinfo_35 emissions_35" vType="DEFAULT_VEHTYPE" speedFactor="1.02" vaporized="">
        <emissions CO_abs="3458.691763" CO2_abs="143718.321418" HC_abs="19.142529" PMx_abs="2.816566" NOx_abs="60.664804" fuel_abs="61.778992" electricity_abs="0"/>
    </tripinfo>
    <tripinfo id="47" depart="41.00" departLane="N_in_0" departPos="5.10" departSpeed="0.00" departDelay="3.40" arrival="94.00" arrivalLane="E_out_1" arrivalPos="179.60" arrivalSpeed="11.31" duration="53.00" routeLength="384.42" waitingTime="3.00" waitingCount="1" stopTime="0.00" timeLoss="21.06" rerouteNo="0" devices="tripinfo_47 emissions_47" vType="DEFAULT_VEHTYPE" speedFactor="0.90" vaporized="">
        <emissions CO_abs="2694.828915" CO2_abs="128273.168260" HC_abs="15.267748" PMx_abs="2.303038" NOx_abs="52.992869" fuel_abs="55.139678" electricity_abs="0"/>
    </tripinfo>
    <tripinfo id="39" depart="35.00" departLane="S_in_0" departPos="5.10" departSpeed="0.00" departDelay="3.80" arrival="96.00" arrivalLane="W_out_1" arrivalPos="179.60" arrivalSpeed="7.89" duration="61.00" routeLength="384.42" waitingTime="12.00" waitingCount="3" stopTime="0.00" timeLoss="29.31" rerouteNo="0" devices="tripinfo_39 emissions_39" vType="DEFAULT_VEHTYPE" speedFactor="0.90" vaporized="">
        <emissions CO_abs="2918.386089" CO2_abs="128464.722918" HC_abs="16.288200" PMx_abs="2.335263" NOx_abs="53.312822" fuel_abs="55.222158" electricity_abs="0"/>
    </tripinfo>
    <tripinfo id="41" depart="35.00" departLane="E_in_0" departPos="5.10" departSpeed="0.00" departDelay="2.20" arrival="100.00" arrivalLane="W_out_0" arrivalPos="179.60" arrivalSpeed="13.00" duration="65.00" routeLength="394.90" waitingTime="12.00" waitingCount="3" stopTime="0.00" timeLoss="34.89" rerouteNo="0" devices="tripinfo_41 emissions_41" vType="DEFAULT_VEHTYPE" speedFactor="0.96" vaporized="">
        <emissions CO_abs="3292.066404" CO2_abs="148724.743816" HC_abs="18.477531" PMx_abs="2.753153" NOx_abs="61.873110" fuel_abs="63.931047" electricity_abs="0"/>
    </tripinfo>
    <tripinfo id="63" depart="51.00" departLane="S_out_0" departPos="5.10" departSpeed="0.00" departDelay="0.60" arrival="100.00" arrivalLane="S_in_1" arrivalPos="179.60" arrivalSpeed="3.48" duration="49.00" routeLength="358.77" waitingTime="4.00" waitingCount="1" stopTime="0.00" timeLoss="21.24" rerouteNo="0" devices="tripinfo_63 emissions_63" vType="DEFAULT_VEHTYPE" speedFactor="0.99" vaporized="">
        <emissions CO_abs="2585.873590" CO2_abs="127684.855681" HC_abs="14.785147" PMx_abs="2.409076" NOx_abs="53.382755" fuel_abs="54.886536" electricity_abs="0"/>
    </tripinfo>
    <tripinfo id="14" depart="12.00" departLane="E_in_0" departPos="5.10" departSpeed="0.00" departDelay="0.80" arrival="101.00" arrivalLane="E_out_0" arrivalPos="179.60" arrivalSpeed="13.74" duration="89.00" routeLength="799.57" waitingTime="8.00" waitingCount="2" stopTime="0.00" timeLoss="29.26" rerouteNo="0" devices="tripinfo_14 emissions_14" vType="DEFAULT_VEHTYPE" speedFactor="0.99" vaporized="">
        <emissions CO_abs="3934.118832" CO2_abs="238069.665502" HC_abs="23.459925" PMx_abs="4.120532" NOx_abs="96.504931" fuel_abs="102.336353" electricity_abs="0"/>
    </tripinfo>
    <tripinfo id="31" depart="31.00" departLane="W_in_0" departPos="5.10" departSpeed="0.00" departDelay="6.20" arrival="104.00" arrivalLane="N_out_0" arrivalPos="179.60" arrivalSpeed="13.20" duration="73.00" routeLength="384.42" waitingTime="19.00" waitingCount="4" stopTime="0.00" timeLoss="48.21" rerouteNo="0" devices="tripinfo_31 emissions_31" vType="DEFAULT_VEHTYPE" speedFactor="1.15" vaporized="">
        <emissions CO_abs="4239.536234" CO2_abs="178501.940225" HC_abs="23.531057" PMx_abs="3.564894" NOx_abs="75.970704" fuel_abs="76.730965" electricity_abs="0"/>
    </tripinfo>
    <tripinfo id="70" depart="56.00" departLane="E_in_0" departPos="5.10" departSpeed="0.00" departDelay="0.00" arrival="106.00" arrivalLane="S_out_1" arrivalPos="179.60" arrivalSpeed="6.15" duration="50.00" routeLength="384.42" waitingTime="9.00" waitingCount="2" stopTime="0.00" timeLoss="22.58" rerouteNo="0" devices="tripinfo_70 emissions_70" vType="DEFAULT_VEHTYPE" speedFactor="1.02" vaporized="">
        <emissions CO_abs="2807.342966" CO2_abs="145201.314842" HC_abs="16.147855" PMx_abs="2.618553" NOx_abs="59.662246" fuel_abs="62.416241" electricity_abs="0"/>
    </tripinfo>
    <tripinfo id="75" depart="62.00" departLane="N_in_0" departPos="5.10" departSpeed="0.00" departDelay="2.00" arrival="108.00" arrivalLane="E_out_1" arrivalPos="179.60" arrivalSpeed="12.76" duration="46.00" routeLength="384.42" waitingTime="3.00" waitingCount="1" stopTime="0.00" timeLoss="17.29" rerouteNo="0" devices="tripinfo_75 emissions_75" vType="DEFAULT_VEHTYPE" speedFactor="0.98" vaporized="">
        <emissions CO_abs="2342.867450" CO2_abs="124811.051844" HC_abs="13.600584" PMx_abs="2.279683" NOx_abs="51.653955" fuel_abs="53.651166" electricity_abs="0"/>
    </tripinfo>
    <tripinfo id="54" depart="44.00" departLane="W_in_0" departPos="5.10" departSpeed="0.00" departDelay="0.80" arrival="110.00" arrivalLane="S_out_0" arrivalPos="179.60" arrivalSpeed="13.71" duration="66.00" routeLength="394.74" waitingTime="16.00" waitingCount="3" stopTime="0.00" timeLoss="36.68" rerouteNo="0" devices="tripinfo_54 emissions_54" vType="DEFAULT_VEHTYPE" speedFactor="1.00" vaporized="">
        <emissions CO_abs="3991.495817" CO2_abs="176477.123349" HC_abs="22.326054" PMx_abs="3.343492" NOx_abs="73.861057" fuel_abs="75.860689" electricity_abs="0"/>
    </tripinfo>